# vtk DataFile Version 2.0
domain, Created by Gmsh 4.13.1 
ASCII
DATASET UNSTRUCTURED_GRID
POINTS 128 double
0 0 0
1 0 0
1 1 0
0 1 0
0 0 1
1 0 1
1 1 1
0 1 1
1 0 0
2 0 0
2 1 0
1 1 0
1 0 1
2 0 1
2 1 1
1 1 1
0.3333333333333333 0 0
0.6666666666666666 0 0
1 0.3333333333333333 0
1 0.6666666666666666 0
0.6666666666666667 1 0
0.3333333333333334 1 0
0 0.6666666666666667 0
0 0.3333333333333334 0
0 0 0.3333333333333333
0 0 0.6666666666666666
1 0 0.3333333333333333
1 0 0.6666666666666666
0.3333333333333333 0 1
0.6666666666666666 0 1
1 1 0.3333333333333333
1 1 0.6666666666666666
1 0.3333333333333333 1
1 0.6666666666666666 1
0 1 0.3333333333333333
0 1 0.6666666666666666
0.6666666666666667 1 1
0.3333333333333334 1 1
0 0.6666666666666667 1
0 0.3333333333333334 1
1.333333333333333 0 0
1.666666666666667 0 0
2 0.3333333333333333 0
2 0.6666666666666666 0
1.666666666666667 1 0
1.333333333333333 1 0
1 0.6666666666666667 0
1 0.3333333333333334 0
1 0 0.3333333333333333
1 0 0.6666666666666666
2 0 0.3333333333333333
2 0 0.6666666666666666
1.333333333333333 0 1
1.666666666666667 0 1
2 1 0.3333333333333333
2 1 0.6666666666666666
2 0.3333333333333333 1
2 0.6666666666666666 1
1 1 0.3333333333333333
1 1 0.6666666666666666
1.666666666666667 1 1
1.333333333333333 1 1
1 0.6666666666666667 1
1 0.3333333333333334 1
0.3333333333333334 0.3333333333333334 0
0.3333333333333334 0.6666666666666667 0
0.6666666666666666 0.3333333333333333 0
0.6666666666666666 0.6666666666666666 0
0.3333333333333333 0 0.3333333333333333
0.3333333333333333 0 0.6666666666666666
0.6666666666666666 0 0.3333333333333333
0.6666666666666666 0 0.6666666666666666
1 0.3333333333333333 0.3333333333333333
1 0.3333333333333333 0.6666666666666666
1 0.6666666666666666 0.3333333333333333
1 0.6666666666666666 0.6666666666666666
0.6666666666666667 1 0.3333333333333333
0.6666666666666667 1 0.6666666666666666
0.3333333333333334 1 0.3333333333333333
0.3333333333333334 1 0.6666666666666666
0 0.6666666666666667 0.3333333333333333
0 0.6666666666666667 0.6666666666666666
0 0.3333333333333334 0.3333333333333333
0 0.3333333333333334 0.6666666666666666
0.3333333333333334 0.3333333333333334 1
0.3333333333333334 0.6666666666666667 1
0.6666666666666666 0.3333333333333333 1
0.6666666666666666 0.6666666666666666 1
1.333333333333333 0.3333333333333334 0
1.333333333333333 0.6666666666666667 0
1.666666666666667 0.3333333333333333 0
1.666666666666667 0.6666666666666666 0
1.333333333333333 0 0.3333333333333333
1.333333333333333 0 0.6666666666666666
1.666666666666667 0 0.3333333333333333
1.666666666666667 0 0.6666666666666666
2 0.3333333333333333 0.3333333333333333
2 0.3333333333333333 0.6666666666666666
2 0.6666666666666666 0.3333333333333333
2 0.6666666666666666 0.6666666666666666
1.666666666666667 1 0.3333333333333333
1.666666666666667 1 0.6666666666666666
1.333333333333333 1 0.3333333333333333
1.333333333333333 1 0.6666666666666666
1 0.6666666666666667 0.3333333333333333
1 0.6666666666666667 0.6666666666666666
1 0.3333333333333334 0.3333333333333333
1 0.3333333333333334 0.6666666666666666
1.333333333333333 0.3333333333333334 1
1.333333333333333 0.6666666666666667 1
1.666666666666667 0.3333333333333333 1
1.666666666666667 0.6666666666666666 1
0.3333333333333334 0.3333333333333334 0.3333333333333333
0.3333333333333334 0.3333333333333334 0.6666666666666666
0.3333333333333334 0.6666666666666667 0.3333333333333333
0.3333333333333334 0.6666666666666667 0.6666666666666666
0.6666666666666666 0.3333333333333333 0.3333333333333333
0.6666666666666666 0.3333333333333333 0.6666666666666666
0.6666666666666666 0.6666666666666666 0.3333333333333333
0.6666666666666666 0.6666666666666666 0.6666666666666666
1.333333333333333 0.3333333333333334 0.3333333333333333
1.333333333333333 0.3333333333333334 0.6666666666666666
1.333333333333333 0.6666666666666667 0.3333333333333333
1.333333333333333 0.6666666666666667 0.6666666666666666
1.666666666666667 0.3333333333333333 0.3333333333333333
1.666666666666667 0.3333333333333333 0.6666666666666666
1.666666666666667 0.6666666666666666 0.3333333333333333
1.666666666666667 0.6666666666666666 0.6666666666666666

CELLS 162 1026
4 0 16 64 23
4 23 64 65 22
4 22 65 21 3
4 16 17 66 64
4 64 66 67 65
4 65 67 20 21
4 17 1 18 66
4 66 18 19 67
4 67 19 2 20
4 0 16 68 24
4 24 68 69 25
4 25 69 28 4
4 16 17 70 68
4 68 70 71 69
4 69 71 29 28
4 17 1 26 70
4 70 26 27 71
4 71 27 5 29
4 1 18 72 26
4 26 72 73 27
4 27 73 32 5
4 18 19 74 72
4 72 74 75 73
4 73 75 33 32
4 19 2 30 74
4 74 30 31 75
4 75 31 6 33
4 2 20 76 30
4 30 76 77 31
4 31 77 36 6
4 20 21 78 76
4 76 78 79 77
4 77 79 37 36
4 21 3 34 78
4 78 34 35 79
4 79 35 7 37
4 3 22 80 34
4 34 80 81 35
4 35 81 38 7
4 22 23 82 80
4 80 82 83 81
4 81 83 39 38
4 23 0 24 82
4 82 24 25 83
4 83 25 4 39
4 4 28 84 39
4 39 84 85 38
4 38 85 37 7
4 28 29 86 84
4 84 86 87 85
4 85 87 36 37
4 29 5 32 86
4 86 32 33 87
4 87 33 6 36
4 8 40 88 47
4 47 88 89 46
4 46 89 45 11
4 40 41 90 88
4 88 90 91 89
4 89 91 44 45
4 41 9 42 90
4 90 42 43 91
4 91 43 10 44
4 8 40 92 48
4 48 92 93 49
4 49 93 52 12
4 40 41 94 92
4 92 94 95 93
4 93 95 53 52
4 41 9 50 94
4 94 50 51 95
4 95 51 13 53
4 9 42 96 50
4 50 96 97 51
4 51 97 56 13
4 42 43 98 96
4 96 98 99 97
4 97 99 57 56
4 43 10 54 98
4 98 54 55 99
4 99 55 14 57
4 10 44 100 54
4 54 100 101 55
4 55 101 60 14
4 44 45 102 100
4 100 102 103 101
4 101 103 61 60
4 45 11 58 102
4 102 58 59 103
4 103 59 15 61
4 11 46 104 58
4 58 104 105 59
4 59 105 62 15
4 46 47 106 104
4 104 106 107 105
4 105 107 63 62
4 47 8 48 106
4 106 48 49 107
4 107 49 12 63
4 12 52 108 63
4 63 108 109 62
4 62 109 61 15
4 52 53 110 108
4 108 110 111 109
4 109 111 60 61
4 53 13 56 110
4 110 56 57 111
4 111 57 14 60
8 0 16 64 23 24 68 112 82
8 24 68 112 82 25 69 113 83
8 25 69 113 83 4 28 84 39
8 23 64 65 22 82 112 114 80
8 82 112 114 80 83 113 115 81
8 83 113 115 81 39 84 85 38
8 22 65 21 3 80 114 78 34
8 80 114 78 34 81 115 79 35
8 81 115 79 35 38 85 37 7
8 16 17 66 64 68 70 116 112
8 68 70 116 112 69 71 117 113
8 69 71 117 113 28 29 86 84
8 64 66 67 65 112 116 118 114
8 112 116 118 114 113 117 119 115
8 113 117 119 115 84 86 87 85
8 65 67 20 21 114 118 76 78
8 114 118 76 78 115 119 77 79
8 115 119 77 79 85 87 36 37
8 17 1 18 66 70 26 72 116
8 70 26 72 116 71 27 73 117
8 71 27 73 117 29 5 32 86
8 66 18 19 67 116 72 74 118
8 116 72 74 118 117 73 75 119
8 117 73 75 119 86 32 33 87
8 67 19 2 20 118 74 30 76
8 118 74 30 76 119 75 31 77
8 119 75 31 77 87 33 6 36
8 8 40 88 47 48 92 120 106
8 48 92 120 106 49 93 121 107
8 49 93 121 107 12 52 108 63
8 47 88 89 46 106 120 122 104
8 106 120 122 104 107 121 123 105
8 107 121 123 105 63 108 109 62
8 46 89 45 11 104 122 102 58
8 104 122 102 58 105 123 103 59
8 105 123 103 59 62 109 61 15
8 40 41 90 88 92 94 124 120
8 92 94 124 120 93 95 125 121
8 93 95 125 121 52 53 110 108
8 88 90 91 89 120 124 126 122
8 120 124 126 122 121 125 127 123
8 121 125 127 123 108 110 111 109
8 89 91 44 45 122 126 100 102
8 122 126 100 102 123 127 101 103
8 123 127 101 103 109 111 60 61
8 41 9 42 90 94 50 96 124
8 94 50 96 124 95 51 97 125
8 95 51 97 125 53 13 56 110
8 90 42 43 91 124 96 98 126
8 124 96 98 126 125 97 99 127
8 125 97 99 127 110 56 57 111
8 91 43 10 44 126 98 54 100
8 126 98 54 100 127 99 55 101
8 127 99 55 101 111 57 14 60

CELL_TYPES 162
9
9
9
9
9
9
9
9
9
9
9
9
9
9
9
9
9
9
9
9
9
9
9
9
9
9
9
9
9
9
9
9
9
9
9
9
9
9
9
9
9
9
9
9
9
9
9
9
9
9
9
9
9
9
9
9
9
9
9
9
9
9
9
9
9
9
9
9
9
9
9
9
9
9
9
9
9
9
9
9
9
9
9
9
9
9
9
9
9
9
9
9
9
9
9
9
9
9
9
9
9
9
9
9
9
9
9
9
12
12
12
12
12
12
12
12
12
12
12
12
12
12
12
12
12
12
12
12
12
12
12
12
12
12
12
12
12
12
12
12
12
12
12
12
12
12
12
12
12
12
12
12
12
12
12
12
12
12
12
12
12
12

CELL_DATA 162
SCALARS CellEntityIds int 1
LOOKUP_TABLE default
2
2
2
2
2
2
2
2
2
2
2
2
2
2
2
2
2
2
1
1
1
1
1
1
1
1
1
2
2
2
2
2
2
2
2
2
2
2
2
2
2
2
2
2
2
2
2
2
2
2
2
2
2
2
4
4
4
4
4
4
4
4
4
4
4
4
4
4
4
4
4
4
4
4
4
4
4
4
4
4
4
4
4
4
4
4
4
4
4
4
3
3
3
3
3
3
3
3
3
4
4
4
4
4
4
4
4
4
1
1
1
1
1
1
1
1
1
1
1
1
1
1
1
1
1
1
1
1
1
1
1
1
1
1
1
2
2
2
2
2
2
2
2
2
2
2
2
2
2
2
2
2
2
2
2
2
2
2
2
2
2
2
