<VTKFile type="UnstructuredGrid" version="1.0">
<UnstructuredGrid>
<FieldData>
<DataArray type="Float64" Name="TIME" NumberOfTuples="1" format="ascii" RangeMin="0" RangeMax="0">
0
</DataArray>
</FieldData>
<Piece NumberOfPoints="325" NumberOfCells="192">
<Points>
<DataArray type="Float64" NumberOfComponents="3" format="ascii">
500 500 1500 375 500 1500 250 500 1500 125
500 1500 0 500 1500 500 375 1500 375 375
1500 250 375 1500 125 375 1500 0 375 1500
500 250 1500 375 250 1500 250 250 1500 125
250 1500 0 250 1500 500 125 1500 375 125
1500 250 125 1500 125 125 1500 0 125 1500
500 0 1500 375 0 1500 250 0 1500 125
0 1500 0 0 1500 500 500 1375 375 500
1375 250 500 1375 125 500 1375 0 500 1375
500 375 1375 375 375 1375 250 375 1375 125
375 1375 0 375 1375 500 250 1375 375 250
1375 250 250 1375 125 250 1375 0 250 1375
500 125 1375 375 125 1375 250 125 1375 125
125 1375 0 125 1375 500 0 1375 375 0
1375 250 0 1375 125 0 1375 0 0 1375
500 500 1250 375 500 1250 250 500 1250 125
500 1250 0 500 1250 500 375 1250 375 375
1250 250 375 1250 125 375 1250 0 375 1250
500 250 1250 375 250 1250 250 250 1250 125
250 1250 0 250 1250 500 125 1250 375 125
1250 250 125 1250 125 125 1250 0 125 1250
500 0 1250 375 0 1250 250 0 1250 125
0 1250 0 0 1250 500 500 1125 375 500
1125 250 500 1125 125 500 1125 0 500 1125
500 375 1125 375 375 1125 250 375 1125 125
375 1125 0 375 1125 500 250 1125 375 250
1125 250 250 1125 125 250 1125 0 250 1125
500 125 1125 375 125 1125 250 125 1125 125
125 1125 0 125 1125 500 0 1125 375 0
1125 250 0 1125 125 0 1125 0 0 1125
500 500 1000 375 500 1000 250 500 1000 125
500 1000 0 500 1000 500 375 1000 375 375
1000 250 375 1000 125 375 1000 0 375 1000
500 250 1000 375 250 1000 250 250 1000 125
250 1000 0 250 1000 500 125 1000 375 125
1000 250 125 1000 125 125 1000 0 125 1000
500 0 1000 375 0 1000 250 0 1000 125
0 1000 0 0 1000 500 500 875 375 500
875 250 500 875 125 500 875 0 500 875
500 375 875 375 375 875 250 375 875 125
375 875 0 375 875 500 250 875 375 250
875 250 250 875 125 250 875 0 250 875
500 125 875 375 125 875 250 125 875 125
125 875 0 125 875 500 0 875 375 0
875 250 0 875 125 0 875 0 0 875
500 500 750 375 500 750 250 500 750 125
500 750 0 500 750 500 375 750 375 375
750 250 375 750 125 375 750 0 375 750
500 250 750 375 250 750 250 250 750 125
250 750 0 250 750 500 125 750 375 125
750 250 125 750 125 125 750 0 125 750
500 0 750 375 0 750 250 0 750 125
0 750 0 0 750 500 500 625 375 500
625 250 500 625 125 500 625 0 500 625
500 375 625 375 375 625 250 375 625 125
375 625 0 375 625 500 250 625 375 250
625 250 250 625 125 250 625 0 250 625
500 125 625 375 125 625 250 125 625 125
125 625 0 125 625 500 0 625 375 0
625 250 0 625 125 0 625 0 0 625
500 500 500 375 500 500 250 500 500 125
500 500 0 500 500 500 375 500 375 375
500 250 375 500 125 375 500 0 375 500
500 250 500 375 250 500 250 250 500 125
250 500 0 250 500 500 125 500 375 125
500 250 125 500 125 125 500 0 125 500
500 0 500 375 0 500 250 0 500 125
0 500 0 0 500 500 500 375 375 500
375 250 500 375 125 500 375 0 500 375
500 375 375 375 375 375 250 375 375 125
375 375 0 375 375 500 250 375 375 250
375 250 250 375 125 250 375 0 250 375
500 125 375 375 125 375 250 125 375 125
125 375 0 125 375 500 0 375 375 0
375 250 0 375 125 0 375 0 0 375
500 500 250 375 500 250 250 500 250 125
500 250 0 500 250 500 375 250 375 375
250 250 375 250 125 375 250 0 375 250
500 250 250 375 250 250 250 250 250 125
250 250 0 250 250 500 125 250 375 125
250 250 125 250 125 125 250 0 125 250
500 0 250 375 0 250 250 0 250 125
0 250 0 0 250 500 500 125 375 500
125 250 500 125 125 500 125 0 500 125
500 375 125 375 375 125 250 375 125 125
375 125 0 375 125 500 250 125 375 250
125 250 250 125 125 250 125 0 250 125
500 125 125 375 125 125 250 125 125 125
125 125 0 125 125 500 0 125 375 0
125 250 0 125 125 0 125 0 0 125
500 500 0 375 500 0 250 500 0 125
500 0 0 500 0 500 375 0 375 375
0 250 375 0 125 375 0 0 375 0
500 250 0 375 250 0 250 250 0 125
250 0 0 250 0 500 125 0 375 125
0 250 125 0 125 125 0 0 125 0
500 0 0 375 0 0 250 0 0 125
0 0 0 0 0 </DataArray>
</Points>
<PointData>
<DataArray type="Float64" Name="ux" NumberOfComponents="1" format="ascii">
9.49675e-014 8.07111e-014 5.99888e-018 -8.07039e-014 -9.49675e-014 1.89935e-013 9.26574e-014 2.49159e-018 -9.26387e-014 -1.89935e-013
1.89935e-013 1.1344e-013 1.37092e-017 -1.13427e-013 -1.89935e-013 1.89935e-013 9.26575e-014 1.48138e-017 -9.2626e-014 -1.89935e-013
9.49675e-014 8.06812e-014 1.38835e-017 -8.06795e-014 -9.49675e-014 1.89935e-013 1.32744e-013 8.99719e-018 -1.32735e-013 -1.89935e-013
3.7987e-013 1.44575e-013 9.13141e-018 -1.44592e-013 -3.7987e-013 3.7987e-013 1.76797e-013 -9.33298e-018 -1.76807e-013 -3.7987e-013
3.7987e-013 1.4457e-013 -1.66882e-017 -1.44602e-013 -3.7987e-013 1.89935e-013 1.32724e-013 -1.66888e-017 -1.32745e-013 -1.89935e-013
1.89935e-013 1.42168e-013 6.4083e-018 -1.42168e-013 -1.89935e-013 3.7987e-013 1.58793e-013 -8.08297e-018 -1.58788e-013 -3.7987e-013
3.7987e-013 1.93477e-013 -8.53529e-018 -1.93492e-013 -3.7987e-013 3.7987e-013 1.58786e-013 -1.61142e-017 -1.58807e-013 -3.7987e-013
1.89935e-013 1.42161e-013 -5.37331e-018 -1.42182e-013 -1.89935e-013 1.89935e-013 1.37979e-013 9.59311e-019 -1.37981e-013 -1.89935e-013
3.7987e-013 1.53656e-013 -4.4459e-018 -1.53662e-013 -3.7987e-013 3.7987e-013 1.88423e-013 -1.50378e-017 -1.88428e-013 -3.7987e-013
3.7987e-013 1.53654e-013 -8.28295e-018 -1.53668e-013 -3.7987e-013 1.89935e-013 1.37983e-013 -1.05128e-019 -1.37986e-013 -1.89935e-013
1.89935e-013 1.36238e-013 -6.18925e-018 -1.36243e-013 -1.89935e-013 3.7987e-013 1.51879e-013 -6.94778e-019 -1.51881e-013 -3.7987e-013
3.7987e-013 1.86509e-013 1.23033e-018 -1.86515e-013 -3.7987e-013 3.7987e-013 1.51887e-013 -1.93929e-018 -1.51885e-013 -3.7987e-013
1.89935e-013 1.36241e-013 5.96994e-018 -1.36235e-013 -1.89935e-013 1.89935e-013 1.35774e-013 2.49545e-018 -1.35771e-013 -1.89935e-013
3.7987e-013 1.51422e-013 7.82197e-019 -1.51424e-013 -3.7987e-013 3.7987e-013 1.86053e-013 1.99333e-019 -1.86045e-013 -3.7987e-013
3.7987e-013 1.51423e-013 2.67424e-018 -1.51418e-013 -3.7987e-013 1.89935e-013 1.35774e-013 3.73153e-018 -1.35774e-013 -1.89935e-013
1.89935e-013 1.35665e-013 9.49561e-019 -1.35666e-013 -1.89935e-013 3.7987e-013 1.51309e-013 3.76982e-018 -1.51302e-013 -3.7987e-013
3.7987e-013 1.85948e-013 9.23444e-019 -1.85942e-013 -3.7987e-013 3.7987e-013 1.51307e-013 3.60362e-018 -1.513e-013 -3.7987e-013
1.89935e-013 1.35668e-013 2.90364e-018 -1.35664e-013 -1.89935e-013 1.89935e-013 1.35647e-013 4.04685e-018 -1.3565e-013 -1.89935e-013
3.7987e-013 1.51288e-013 -8.14192e-019 -1.51287e-013 -3.7987e-013 3.7987e-013 1.85926e-013 5.97096e-018 -1.85923e-013 -3.7987e-013
3.7987e-013 1.51283e-013 2.34591e-018 -1.51281e-013 -3.7987e-013 1.89935e-013 1.35647e-013 -4.40362e-019 -1.35645e-013 -1.89935e-013
1.89935e-013 1.35643e-013 -1.06345e-018 -1.35642e-013 -1.89935e-013 3.7987e-013 1.51301e-013 -3.69627e-019 -1.51303e-013 -3.7987e-013
3.7987e-013 1.85933e-013 -1.39995e-018 -1.85932e-013 -3.7987e-013 3.7987e-013 1.513e-013 -9.69354e-019 -1.51302e-013 -3.7987e-013
1.89935e-013 1.35636e-013 1.76166e-018 -1.3564e-013 -1.89935e-013 1.89935e-013 1.35426e-013 -1.6011e-018 -1.3543e-013 -1.89935e-013
3.7987e-013 1.5107e-013 -1.88339e-018 -1.51073e-013 -3.7987e-013 3.7987e-013 1.85926e-013 -2.82908e-018 -1.85929e-013 -3.7987e-013
3.7987e-013 1.51071e-013 2.16389e-018 -1.51071e-013 -3.7987e-013 1.89935e-013 1.35427e-013 3.35982e-018 -1.35424e-013 -1.89935e-013
1.89935e-013 1.31265e-013 -4.92352e-018 -1.31269e-013 -1.89935e-013 3.7987e-013 1.48447e-013 -3.43618e-018 -1.48453e-013 -3.7987e-013
3.7987e-013 1.82222e-013 -1.14805e-018 -1.82226e-013 -3.7987e-013 3.7987e-013 1.48448e-013 -1.41245e-018 -1.48451e-013 -3.7987e-013
1.89935e-013 1.31265e-013 -1.53585e-018 -1.31266e-013 -1.89935e-013 1.89935e-013 9.99875e-014 -1.9115e-018 -9.99901e-014 -1.89935e-013
3.7987e-013 1.00998e-013 -2.52372e-018 -1.01002e-013 -3.7987e-013 3.7987e-013 1.36161e-013 -3.4694e-018 -1.36165e-013 -3.7987e-013
3.7987e-013 1.00998e-013 -4.0305e-018 -1.01003e-013 -3.7987e-013 1.89935e-013 9.99844e-014 -2.36065e-018 -9.99892e-014 -1.89935e-013
9.49675e-014 2.8818e-024 2.12701e-029 -2.88182e-024 -9.49675e-014 1.89935e-013 6.72207e-024 -4.85822e-029 -6.72216e-024 -1.89935e-013
1.89935e-013 7.97432e-024 -7.67472e-029 -7.97442e-024 -1.89935e-013 1.89935e-013 6.72203e-024 -7.48698e-029 -6.72223e-024 -1.89935e-013
9.49675e-014 2.88177e-024 -7.66255e-029 -2.88186e-024 -9.49675e-014 </DataArray>
<DataArray type="Float64" Name="uy" NumberOfComponents="1" format="ascii">
9.49675e-014 1.89935e-013 1.89935e-013 1.89935e-013 9.49675e-014 8.06519e-014 9.26496e-014 1.13449e-013 9.26575e-014 8.0709e-014
-2.46204e-017 -1.67201e-017 1.60615e-017 8.41382e-018 1.12067e-017 -8.07014e-014 -9.26502e-014 -1.1342e-013 -9.26506e-014 -8.06835e-014
-9.49675e-014 -1.89935e-013 -1.89935e-013 -1.89935e-013 -9.49675e-014 1.89935e-013 3.7987e-013 3.7987e-013 3.7987e-013 1.89935e-013
1.32725e-013 1.44595e-013 1.76804e-013 1.44592e-013 1.32725e-013 -1.11378e-017 1.15687e-017 9.18043e-018 -1.77875e-018 -3.25904e-018
-1.32732e-013 -1.44569e-013 -1.76803e-013 -1.44578e-013 -1.3274e-013 -1.89935e-013 -3.7987e-013 -3.7987e-013 -3.7987e-013 -1.89935e-013
1.89935e-013 3.7987e-013 3.7987e-013 3.7987e-013 1.89935e-013 1.42164e-013 1.58801e-013 1.93505e-013 1.58784e-013 1.42162e-013
1.1556e-017 1.29966e-017 1.80266e-017 -3.8906e-019 -2.85419e-018 -1.42157e-013 -1.58772e-013 -1.93477e-013 -1.58779e-013 -1.42155e-013
-1.89935e-013 -3.7987e-013 -3.7987e-013 -3.7987e-013 -1.89935e-013 1.89935e-013 3.7987e-013 3.7987e-013 3.7987e-013 1.89935e-013
1.37983e-013 1.53662e-013 1.8843e-013 1.53671e-013 1.37983e-013 -1.88502e-018 3.89966e-018 1.0154e-017 1.86976e-018 1.13266e-017
-1.37987e-013 -1.53658e-013 -1.88424e-013 -1.53665e-013 -1.37984e-013 -1.89935e-013 -3.7987e-013 -3.7987e-013 -3.7987e-013 -1.89935e-013
1.89935e-013 3.7987e-013 3.7987e-013 3.7987e-013 1.89935e-013 1.36249e-013 1.51894e-013 1.86524e-013 1.51897e-013 1.36254e-013
1.27532e-017 1.56835e-017 1.75893e-017 1.7573e-017 1.32111e-017 -1.36237e-013 -1.51877e-013 -1.86506e-013 -1.51877e-013 -1.36229e-013
-1.89935e-013 -3.7987e-013 -3.7987e-013 -3.7987e-013 -1.89935e-013 1.89935e-013 3.7987e-013 3.7987e-013 3.7987e-013 1.89935e-013
1.35779e-013 1.51428e-013 1.86057e-013 1.51419e-013 1.35785e-013 1.98316e-017 1.08727e-017 1.86025e-017 1.40622e-017 1.26535e-017
-1.3576e-013 -1.51404e-013 -1.86029e-013 -1.51404e-013 -1.35766e-013 -1.89935e-013 -3.7987e-013 -3.7987e-013 -3.7987e-013 -1.89935e-013
1.89935e-013 3.7987e-013 3.7987e-013 3.7987e-013 1.89935e-013 1.35666e-013 1.51309e-013 1.85947e-013 1.51311e-013 1.35661e-013
9.22778e-018 1.27893e-017 8.27458e-018 4.8021e-018 7.85821e-018 -1.35656e-013 -1.51293e-013 -1.85929e-013 -1.51304e-013 -1.35657e-013
-1.89935e-013 -3.7987e-013 -3.7987e-013 -3.7987e-013 -1.89935e-013 1.89935e-013 3.7987e-013 3.7987e-013 3.7987e-013 1.89935e-013
1.35641e-013 1.5129e-013 1.85925e-013 1.51285e-013 1.35639e-013 1.49961e-018 4.07932e-018 2.22387e-018 1.94773e-019 -8.58123e-019
-1.35643e-013 -1.51278e-013 -1.8592e-013 -1.51283e-013 -1.35642e-013 -1.89935e-013 -3.7987e-013 -3.7987e-013 -3.7987e-013 -1.89935e-013
1.89935e-013 3.7987e-013 3.7987e-013 3.7987e-013 1.89935e-013 1.35644e-013 1.51298e-013 1.85933e-013 1.51299e-013 1.3564e-013
-2.33164e-019 3.79778e-018 -1.20286e-018 -1.60054e-018 -4.59025e-019 -1.35639e-013 -1.51298e-013 -1.8593e-013 -1.51298e-013 -1.35645e-013
-1.89935e-013 -3.7987e-013 -3.7987e-013 -3.7987e-013 -1.89935e-013 1.89935e-013 3.7987e-013 3.7987e-013 3.7987e-013 1.89935e-013
1.35425e-013 1.51072e-013 1.85931e-013 1.5107e-013 1.35425e-013 7.49725e-019 -3.97669e-019 1.82918e-018 -2.29431e-019 -9.3692e-019
-1.35425e-013 -1.51069e-013 -1.85927e-013 -1.51071e-013 -1.35428e-013 -1.89935e-013 -3.7987e-013 -3.7987e-013 -3.7987e-013 -1.89935e-013
1.89935e-013 3.7987e-013 3.7987e-013 3.7987e-013 1.89935e-013 1.31265e-013 1.48452e-013 1.82226e-013 1.48448e-013 1.31265e-013
-7.92939e-019 1.85625e-018 2.19491e-018 -2.10713e-018 -3.03166e-018 -1.31268e-013 -1.48452e-013 -1.82224e-013 -1.48452e-013 -1.31269e-013
-1.89935e-013 -3.7987e-013 -3.7987e-013 -3.7987e-013 -1.89935e-013 1.89935e-013 3.7987e-013 3.7987e-013 3.7987e-013 1.89935e-013
9.99878e-014 1.01004e-013 1.36165e-013 1.00999e-013 9.99868e-014 6.43712e-019 3.0202e-018 2.35422e-018 -2.03746e-018 -2.43494e-018
-9.99862e-014 -1.00998e-013 -1.36162e-013 -1.01003e-013 -9.99884e-014 -1.89935e-013 -3.7987e-013 -3.7987e-013 -3.7987e-013 -1.89935e-013
9.49675e-014 1.89935e-013 1.89935e-013 1.89935e-013 9.49675e-014 2.88184e-024 6.72229e-024 7.97443e-024 6.72213e-024 2.8818e-024
2.29363e-029 2.8248e-029 1.6546e-029 -8.48581e-029 -5.43425e-029 -2.88178e-024 -6.72209e-024 -7.97437e-024 -6.72221e-024 -2.88186e-024
-9.49675e-014 -1.89935e-013 -1.89935e-013 -1.89935e-013 -9.49675e-014 </DataArray>
<DataArray type="Float64" Name="uz" NumberOfComponents="1" format="ascii">
-0.148571 -0.148571 -0.148571 -0.148571 -0.148571 -0.148571 -0.148571 -0.148571 -0.148571 -0.148571
-0.148571 -0.148571 -0.148571 -0.148571 -0.148571 -0.148571 -0.148571 -0.148571 -0.148571 -0.148571
-0.148571 -0.148571 -0.148571 -0.148571 -0.148571 -0.13619 -0.13619 -0.13619 -0.13619 -0.13619
-0.13619 -0.13619 -0.13619 -0.13619 -0.13619 -0.13619 -0.13619 -0.13619 -0.13619 -0.13619
-0.13619 -0.13619 -0.13619 -0.13619 -0.13619 -0.13619 -0.13619 -0.13619 -0.13619 -0.13619
-0.12381 -0.12381 -0.12381 -0.12381 -0.12381 -0.12381 -0.12381 -0.12381 -0.12381 -0.12381
-0.12381 -0.12381 -0.12381 -0.12381 -0.12381 -0.12381 -0.12381 -0.12381 -0.12381 -0.12381
-0.12381 -0.12381 -0.12381 -0.12381 -0.12381 -0.111429 -0.111429 -0.111429 -0.111429 -0.111429
-0.111429 -0.111429 -0.111429 -0.111429 -0.111429 -0.111429 -0.111429 -0.111429 -0.111429 -0.111429
-0.111429 -0.111429 -0.111429 -0.111429 -0.111429 -0.111429 -0.111429 -0.111429 -0.111429 -0.111429
-0.0990476 -0.0990476 -0.0990476 -0.0990476 -0.0990476 -0.0990476 -0.0990476 -0.0990476 -0.0990476 -0.0990476
-0.0990476 -0.0990476 -0.0990476 -0.0990476 -0.0990476 -0.0990476 -0.0990476 -0.0990476 -0.0990476 -0.0990476
-0.0990476 -0.0990476 -0.0990476 -0.0990476 -0.0990476 -0.0866667 -0.0866667 -0.0866667 -0.0866667 -0.0866667
-0.0866667 -0.0866667 -0.0866667 -0.0866667 -0.0866667 -0.0866667 -0.0866667 -0.0866667 -0.0866667 -0.0866667
-0.0866667 -0.0866667 -0.0866667 -0.0866667 -0.0866667 -0.0866667 -0.0866667 -0.0866667 -0.0866667 -0.0866667
-0.0742857 -0.0742857 -0.0742857 -0.0742857 -0.0742857 -0.0742857 -0.0742857 -0.0742857 -0.0742857 -0.0742857
-0.0742857 -0.0742857 -0.0742857 -0.0742857 -0.0742857 -0.0742857 -0.0742857 -0.0742857 -0.0742857 -0.0742857
-0.0742857 -0.0742857 -0.0742857 -0.0742857 -0.0742857 -0.0619048 -0.0619048 -0.0619048 -0.0619048 -0.0619048
-0.0619048 -0.0619048 -0.0619048 -0.0619048 -0.0619048 -0.0619048 -0.0619048 -0.0619048 -0.0619048 -0.0619048
-0.0619048 -0.0619048 -0.0619048 -0.0619048 -0.0619048 -0.0619048 -0.0619048 -0.0619048 -0.0619048 -0.0619048
-0.0495238 -0.0495238 -0.0495238 -0.0495238 -0.0495238 -0.0495238 -0.0495238 -0.0495238 -0.0495238 -0.0495238
-0.0495238 -0.0495238 -0.0495238 -0.0495238 -0.0495238 -0.0495238 -0.0495238 -0.0495238 -0.0495238 -0.0495238
-0.0495238 -0.0495238 -0.0495238 -0.0495238 -0.0495238 -0.0371429 -0.0371429 -0.0371429 -0.0371429 -0.0371429
-0.0371429 -0.0371429 -0.0371429 -0.0371429 -0.0371429 -0.0371429 -0.0371429 -0.0371429 -0.0371429 -0.0371429
-0.0371429 -0.0371429 -0.0371429 -0.0371429 -0.0371429 -0.0371429 -0.0371429 -0.0371429 -0.0371429 -0.0371429
-0.0247619 -0.0247619 -0.0247619 -0.0247619 -0.0247619 -0.0247619 -0.0247619 -0.0247619 -0.0247619 -0.0247619
-0.0247619 -0.0247619 -0.0247619 -0.0247619 -0.0247619 -0.0247619 -0.0247619 -0.0247619 -0.0247619 -0.0247619
-0.0247619 -0.0247619 -0.0247619 -0.0247619 -0.0247619 -0.012381 -0.012381 -0.012381 -0.012381 -0.012381
-0.012381 -0.012381 -0.012381 -0.012381 -0.012381 -0.012381 -0.012381 -0.012381 -0.012381 -0.012381
-0.012381 -0.012381 -0.012381 -0.012381 -0.012381 -0.012381 -0.012381 -0.012381 -0.012381 -0.012381
-2.21591e-013 -4.43182e-013 -4.43182e-013 -4.43182e-013 -2.21591e-013 -4.43182e-013 -8.86364e-013 -8.86364e-013 -8.86364e-013 -4.43182e-013
-4.43182e-013 -8.86364e-013 -8.86364e-013 -8.86364e-013 -4.43182e-013 -4.43182e-013 -8.86364e-013 -8.86364e-013 -8.86364e-013 -4.43182e-013
-2.21591e-013 -4.43182e-013 -4.43182e-013 -4.43182e-013 -2.21591e-013 </DataArray>
</PointData>
<Cells>
<DataArray type="Int64" Name="connectivity" format="ascii">
318 319 324 323 293 294 299 298 293 294
299 298 268 269 274 273 268 269 274 273
243 244 249 248 243 244 249 248 218 219
224 223 218 219 224 223 193 194 199 198
193 194 199 198 168 169 174 173 168 169
174 173 143 144 149 148 143 144 149 148
118 119 124 123 118 119 124 123 93 94
99 98 93 94 99 98 68 69 74 73
68 69 74 73 43 44 49 48 43 44
49 48 18 19 24 23 300 301 306 305
275 276 281 280 275 276 281 280 250 251
256 255 250 251 256 255 225 226 231 230
225 226 231 230 200 201 206 205 200 201
206 205 175 176 181 180 175 176 181 180
150 151 156 155 150 151 156 155 125 126
131 130 125 126 131 130 100 101 106 105
100 101 106 105 75 76 81 80 75 76
81 80 50 51 56 55 50 51 56 55
25 26 31 30 25 26 31 30 0 1
6 5 305 306 311 310 280 281 286 285
280 281 286 285 255 256 261 260 255 256
261 260 230 231 236 235 230 231 236 235
205 206 211 210 205 206 211 210 180 181
186 185 180 181 186 185 155 156 161 160
155 156 161 160 130 131 136 135 130 131
136 135 105 106 111 110 105 106 111 110
80 81 86 85 80 81 86 85 55 56
61 60 55 56 61 60 30 31 36 35
30 31 36 35 5 6 11 10 310 311
316 315 285 286 291 290 285 286 291 290
260 261 266 265 260 261 266 265 235 236
241 240 235 236 241 240 210 211 216 215
210 211 216 215 185 186 191 190 185 186
191 190 160 161 166 165 160 161 166 165
135 136 141 140 135 136 141 140 110 111
116 115 110 111 116 115 85 86 91 90
85 86 91 90 60 61 66 65 60 61
66 65 35 36 41 40 35 36 41 40
10 11 16 15 315 316 321 320 290 291
296 295 290 291 296 295 265 266 271 270
265 266 271 270 240 241 246 245 240 241
246 245 215 216 221 220 215 216 221 220
190 191 196 195 190 191 196 195 165 166
171 170 165 166 171 170 140 141 146 145
140 141 146 145 115 116 121 120 115 116
121 120 90 91 96 95 90 91 96 95
65 66 71 70 65 66 71 70 40 41
46 45 40 41 46 45 15 16 21 20
301 302 307 306 276 277 282 281 276 277
282 281 251 252 257 256 251 252 257 256
226 227 232 231 226 227 232 231 201 202
207 206 201 202 207 206 176 177 182 181
176 177 182 181 151 152 157 156 151 152
157 156 126 127 132 131 126 127 132 131
101 102 107 106 101 102 107 106 76 77
82 81 76 77 82 81 51 52 57 56
51 52 57 56 26 27 32 31 26 27
32 31 1 2 7 6 306 307 312 311
281 282 287 286 281 282 287 286 256 257
262 261 256 257 262 261 231 232 237 236
231 232 237 236 206 207 212 211 206 207
212 211 181 182 187 186 181 182 187 186
156 157 162 161 156 157 162 161 131 132
137 136 131 132 137 136 106 107 112 111
106 107 112 111 81 82 87 86 81 82
87 86 56 57 62 61 56 57 62 61
31 32 37 36 31 32 37 36 6 7
12 11 311 312 317 316 286 287 292 291
286 287 292 291 261 262 267 266 261 262
267 266 236 237 242 241 236 237 242 241
211 212 217 216 211 212 217 216 186 187
192 191 186 187 192 191 161 162 167 166
161 162 167 166 136 137 142 141 136 137
142 141 111 112 117 116 111 112 117 116
86 87 92 91 86 87 92 91 61 62
67 66 61 62 67 66 36 37 42 41
36 37 42 41 11 12 17 16 316 317
322 321 291 292 297 296 291 292 297 296
266 267 272 271 266 267 272 271 241 242
247 246 241 242 247 246 216 217 222 221
216 217 222 221 191 192 197 196 191 192
197 196 166 167 172 171 166 167 172 171
141 142 147 146 141 142 147 146 116 117
122 121 116 117 122 121 91 92 97 96
91 92 97 96 66 67 72 71 66 67
72 71 41 42 47 46 41 42 47 46
16 17 22 21 302 303 308 307 277 278
283 282 277 278 283 282 252 253 258 257
252 253 258 257 227 228 233 232 227 228
233 232 202 203 208 207 202 203 208 207
177 178 183 182 177 178 183 182 152 153
158 157 152 153 158 157 127 128 133 132
127 128 133 132 102 103 108 107 102 103
108 107 77 78 83 82 77 78 83 82
52 53 58 57 52 53 58 57 27 28
33 32 27 28 33 32 2 3 8 7
307 308 313 312 282 283 288 287 282 283
288 287 257 258 263 262 257 258 263 262
232 233 238 237 232 233 238 237 207 208
213 212 207 208 213 212 182 183 188 187
182 183 188 187 157 158 163 162 157 158
163 162 132 133 138 137 132 133 138 137
107 108 113 112 107 108 113 112 82 83
88 87 82 83 88 87 57 58 63 62
57 58 63 62 32 33 38 37 32 33
38 37 7 8 13 12 312 313 318 317
287 288 293 292 287 288 293 292 262 263
268 267 262 263 268 267 237 238 243 242
237 238 243 242 212 213 218 217 212 213
218 217 187 188 193 192 187 188 193 192
162 163 168 167 162 163 168 167 137 138
143 142 137 138 143 142 112 113 118 117
112 113 118 117 87 88 93 92 87 88
93 92 62 63 68 67 62 63 68 67
37 38 43 42 37 38 43 42 12 13
18 17 317 318 323 322 292 293 298 297
292 293 298 297 267 268 273 272 267 268
273 272 242 243 248 247 242 243 248 247
217 218 223 222 217 218 223 222 192 193
198 197 192 193 198 197 167 168 173 172
167 168 173 172 142 143 148 147 142 143
148 147 117 118 123 122 117 118 123 122
92 93 98 97 92 93 98 97 67 68
73 72 67 68 73 72 42 43 48 47
42 43 48 47 17 18 23 22 303 304
309 308 278 279 284 283 278 279 284 283
253 254 259 258 253 254 259 258 228 229
234 233 228 229 234 233 203 204 209 208
203 204 209 208 178 179 184 183 178 179
184 183 153 154 159 158 153 154 159 158
128 129 134 133 128 129 134 133 103 104
109 108 103 104 109 108 78 79 84 83
78 79 84 83 53 54 59 58 53 54
59 58 28 29 34 33 28 29 34 33
3 4 9 8 308 309 314 313 283 284
289 288 283 284 289 288 258 259 264 263
258 259 264 263 233 234 239 238 233 234
239 238 208 209 214 213 208 209 214 213
183 184 189 188 183 184 189 188 158 159
164 163 158 159 164 163 133 134 139 138
133 134 139 138 108 109 114 113 108 109
114 113 83 84 89 88 83 84 89 88
58 59 64 63 58 59 64 63 33 34
39 38 33 34 39 38 8 9 14 13
313 314 319 318 288 289 294 293 288 289
294 293 263 264 269 268 263 264 269 268
238 239 244 243 238 239 244 243 213 214
219 218 213 214 219 218 188 189 194 193
188 189 194 193 163 164 169 168 163 164
169 168 138 139 144 143 138 139 144 143
113 114 119 118 113 114 119 118 88 89
94 93 88 89 94 93 63 64 69 68
63 64 69 68 38 39 44 43 38 39
44 43 13 14 19 18 </DataArray>
<DataArray type="Int8" Name="types" format="ascii" RangeMin="12" RangeMax="12">
12 12 12 12 12 12 12 12 12 12
12 12 12 12 12 12 12 12 12 12
12 12 12 12 12 12 12 12 12 12
12 12 12 12 12 12 12 12 12 12
12 12 12 12 12 12 12 12 12 12
12 12 12 12 12 12 12 12 12 12
12 12 12 12 12 12 12 12 12 12
12 12 12 12 12 12 12 12 12 12
12 12 12 12 12 12 12 12 12 12
12 12 12 12 12 12 12 12 12 12
12 12 12 12 12 12 12 12 12 12
12 12 12 12 12 12 12 12 12 12
12 12 12 12 12 12 12 12 12 12
12 12 12 12 12 12 12 12 12 12
12 12 12 12 12 12 12 12 12 12
12 12 12 12 12 12 12 12 12 12
12 12 12 12 12 12 12 12 12 12
12 12 12 12 12 12 12 12 12 12
12 12 12 12 12 12 12 12 12 12
12 12 </DataArray>
<DataArray type="Int64" Name="offsets" format="ascii" RangeMin="8" RangeMax="1536">
8 16 24 32 40 48 56 64 72 80
88 96 104 112 120 128 136 144 152 160
168 176 184 192 200 208 216 224 232 240
248 256 264 272 280 288 296 304 312 320
328 336 344 352 360 368 376 384 392 400
408 416 424 432 440 448 456 464 472 480
488 496 504 512 520 528 536 544 552 560
568 576 584 592 600 608 616 624 632 640
648 656 664 672 680 688 696 704 712 720
728 736 744 752 760 768 776 784 792 800
808 816 824 832 840 848 856 864 872 880
888 896 904 912 920 928 936 944 952 960
968 976 984 992 1000 1008 1016 1024 1032 1040
1048 1056 1064 1072 1080 1088 1096 1104 1112 1120
1128 1136 1144 1152 1160 1168 1176 1184 1192 1200
1208 1216 1224 1232 1240 1248 1256 1264 1272 1280
1288 1296 1304 1312 1320 1328 1336 1344 1352 1360
1368 1376 1384 1392 1400 1408 1416 1424 1432 1440
1448 1456 1464 1472 1480 1488 1496 1504 1512 1520
1528 1536 </DataArray>
</Cells>
</Piece>
</UnstructuredGrid>
</VTKFile>
