<VTKFile type="UnstructuredGrid" version="1.0">
<UnstructuredGrid>
<FieldData>
<DataArray type="Float64" Name="TIME" NumberOfTuples="1" format="ascii" RangeMin="0" RangeMax="0">
0
</DataArray>
</FieldData>
<Piece NumberOfPoints="2025" NumberOfCells="1536">
<Points>
<DataArray type="Float64" NumberOfComponents="3" format="ascii">
500 500 1500 437.5 500 1500 375 500 1500 312.5
500 1500 250 500 1500 187.5 500 1500 125 500
1500 62.5 500 1500 0 500 1500 500 437.5 1500
437.5 437.5 1500 375 437.5 1500 312.5 437.5 1500 250
437.5 1500 187.5 437.5 1500 125 437.5 1500 62.5 437.5
1500 0 437.5 1500 500 375 1500 437.5 375 1500
375 375 1500 312.5 375 1500 250 375 1500 187.5
375 1500 125 375 1500 62.5 375 1500 0 375
1500 500 312.5 1500 437.5 312.5 1500 375 312.5 1500
312.5 312.5 1500 250 312.5 1500 187.5 312.5 1500 125
312.5 1500 62.5 312.5 1500 0 312.5 1500 500 250
1500 437.5 250 1500 375 250 1500 312.5 250 1500
250 250 1500 187.5 250 1500 125 250 1500 62.5
250 1500 0 250 1500 500 187.5 1500 437.5 187.5
1500 375 187.5 1500 312.5 187.5 1500 250 187.5 1500
187.5 187.5 1500 125 187.5 1500 62.5 187.5 1500 0
187.5 1500 500 125 1500 437.5 125 1500 375 125
1500 312.5 125 1500 250 125 1500 187.5 125 1500
125 125 1500 62.5 125 1500 0 125 1500 500
62.5 1500 437.5 62.5 1500 375 62.5 1500 312.5 62.5
1500 250 62.5 1500 187.5 62.5 1500 125 62.5 1500
62.5 62.5 1500 0 62.5 1500 500 0 1500 437.5
0 1500 375 0 1500 312.5 0 1500 250 0
1500 187.5 0 1500 125 0 1500 62.5 0 1500
0 0 1500 500 500 1437.5 437.5 500 1437.5 375
500 1437.5 312.5 500 1437.5 250 500 1437.5 187.5 500
1437.5 125 500 1437.5 62.5 500 1437.5 0 500 1437.5
500 437.5 1437.5 437.5 437.5 1437.5 375 437.5 1437.5 312.5
437.5 1437.5 250 437.5 1437.5 187.5 437.5 1437.5 125 437.5
1437.5 62.5 437.5 1437.5 0 437.5 1437.5 500 375 1437.5
437.5 375 1437.5 375 375 1437.5 312.5 375 1437.5 250
375 1437.5 187.5 375 1437.5 125 375 1437.5 62.5 375
1437.5 0 375 1437.5 500 312.5 1437.5 437.5 312.5 1437.5
375 312.5 1437.5 312.5 312.5 1437.5 250 312.5 1437.5 187.5
312.5 1437.5 125 312.5 1437.5 62.5 312.5 1437.5 0 312.5
1437.5 500 250 1437.5 437.5 250 1437.5 375 250 1437.5
312.5 250 1437.5 250 250 1437.5 187.5 250 1437.5 125
250 1437.5 62.5 250 1437.5 0 250 1437.5 500 187.5
1437.5 437.5 187.5 1437.5 375 187.5 1437.5 312.5 187.5 1437.5
250 187.5 1437.5 187.5 187.5 1437.5 125 187.5 1437.5 62.5
187.5 1437.5 0 187.5 1437.5 500 125 1437.5 437.5 125
1437.5 375 125 1437.5 312.5 125 1437.5 250 125 1437.5
187.5 125 1437.5 125 125 1437.5 62.5 125 1437.5 0
125 1437.5 500 62.5 1437.5 437.5 62.5 1437.5 375 62.5
1437.5 312.5 62.5 1437.5 250 62.5 1437.5 187.5 62.5 1437.5
125 62.5 1437.5 62.5 62.5 1437.5 0 62.5 1437.5 500
0 1437.5 437.5 0 1437.5 375 0 1437.5 312.5 0
1437.5 250 0 1437.5 187.5 0 1437.5 125 0 1437.5
62.5 0 1437.5 0 0 1437.5 500 500 1375 437.5
500 1375 375 500 1375 312.5 500 1375 250 500
1375 187.5 500 1375 125 500 1375 62.5 500 1375
0 500 1375 500 437.5 1375 437.5 437.5 1375 375
437.5 1375 312.5 437.5 1375 250 437.5 1375 187.5 437.5
1375 125 437.5 1375 62.5 437.5 1375 0 437.5 1375
500 375 1375 437.5 375 1375 375 375 1375 312.5
375 1375 250 375 1375 187.5 375 1375 125 375
1375 62.5 375 1375 0 375 1375 500 312.5 1375
437.5 312.5 1375 375 312.5 1375 312.5 312.5 1375 250
312.5 1375 187.5 312.5 1375 125 312.5 1375 62.5 312.5
1375 0 312.5 1375 500 250 1375 437.5 250 1375
375 250 1375 312.5 250 1375 250 250 1375 187.5
250 1375 125 250 1375 62.5 250 1375 0 250
1375 500 187.5 1375 437.5 187.5 1375 375 187.5 1375
312.5 187.5 1375 250 187.5 1375 187.5 187.5 1375 125
187.5 1375 62.5 187.5 1375 0 187.5 1375 500 125
1375 437.5 125 1375 375 125 1375 312.5 125 1375
250 125 1375 187.5 125 1375 125 125 1375 62.5
125 1375 0 125 1375 500 62.5 1375 437.5 62.5
1375 375 62.5 1375 312.5 62.5 1375 250 62.5 1375
187.5 62.5 1375 125 62.5 1375 62.5 62.5 1375 0
62.5 1375 500 0 1375 437.5 0 1375 375 0
1375 312.5 0 1375 250 0 1375 187.5 0 1375
125 0 1375 62.5 0 1375 0 0 1375 500
500 1312.5 437.5 500 1312.5 375 500 1312.5 312.5 500
1312.5 250 500 1312.5 187.5 500 1312.5 125 500 1312.5
62.5 500 1312.5 0 500 1312.5 500 437.5 1312.5 437.5
437.5 1312.5 375 437.5 1312.5 312.5 437.5 1312.5 250 437.5
1312.5 187.5 437.5 1312.5 125 437.5 1312.5 62.5 437.5 1312.5
0 437.5 1312.5 500 375 1312.5 437.5 375 1312.5 375
375 1312.5 312.5 375 1312.5 250 375 1312.5 187.5 375
1312.5 125 375 1312.5 62.5 375 1312.5 0 375 1312.5
500 312.5 1312.5 437.5 312.5 1312.5 375 312.5 1312.5 312.5
312.5 1312.5 250 312.5 1312.5 187.5 312.5 1312.5 125 312.5
1312.5 62.5 312.5 1312.5 0 312.5 1312.5 500 250 1312.5
437.5 250 1312.5 375 250 1312.5 312.5 250 1312.5 250
250 1312.5 187.5 250 1312.5 125 250 1312.5 62.5 250
1312.5 0 250 1312.5 500 187.5 1312.5 437.5 187.5 1312.5
375 187.5 1312.5 312.5 187.5 1312.5 250 187.5 1312.5 187.5
187.5 1312.5 125 187.5 1312.5 62.5 187.5 1312.5 0 187.5
1312.5 500 125 1312.5 437.5 125 1312.5 375 125 1312.5
312.5 125 1312.5 250 125 1312.5 187.5 125 1312.5 125
125 1312.5 62.5 125 1312.5 0 125 1312.5 500 62.5
1312.5 437.5 62.5 1312.5 375 62.5 1312.5 312.5 62.5 1312.5
250 62.5 1312.5 187.5 62.5 1312.5 125 62.5 1312.5 62.5
62.5 1312.5 0 62.5 1312.5 500 0 1312.5 437.5 0
1312.5 375 0 1312.5 312.5 0 1312.5 250 0 1312.5
187.5 0 1312.5 125 0 1312.5 62.5 0 1312.5 0
0 1312.5 500 500 1250 437.5 500 1250 375 500
1250 312.5 500 1250 250 500 1250 187.5 500 1250
125 500 1250 62.5 500 1250 0 500 1250 500
437.5 1250 437.5 437.5 1250 375 437.5 1250 312.5 437.5
1250 250 437.5 1250 187.5 437.5 1250 125 437.5 1250
62.5 437.5 1250 0 437.5 1250 500 375 1250 437.5
375 1250 375 375 1250 312.5 375 1250 250 375
1250 187.5 375 1250 125 375 1250 62.5 375 1250
0 375 1250 500 312.5 1250 437.5 312.5 1250 375
312.5 1250 312.5 312.5 1250 250 312.5 1250 187.5 312.5
1250 125 312.5 1250 62.5 312.5 1250 0 312.5 1250
500 250 1250 437.5 250 1250 375 250 1250 312.5
250 1250 250 250 1250 187.5 250 1250 125 250
1250 62.5 250 1250 0 250 1250 500 187.5 1250
437.5 187.5 1250 375 187.5 1250 312.5 187.5 1250 250
187.5 1250 187.5 187.5 1250 125 187.5 1250 62.5 187.5
1250 0 187.5 1250 500 125 1250 437.5 125 1250
375 125 1250 312.5 125 1250 250 125 1250 187.5
125 1250 125 125 1250 62.5 125 1250 0 125
1250 500 62.5 1250 437.5 62.5 1250 375 62.5 1250
312.5 62.5 1250 250 62.5 1250 187.5 62.5 1250 125
62.5 1250 62.5 62.5 1250 0 62.5 1250 500 0
1250 437.5 0 1250 375 0 1250 312.5 0 1250
250 0 1250 187.5 0 1250 125 0 1250 62.5
0 1250 0 0 1250 500 500 1187.5 437.5 500
1187.5 375 500 1187.5 312.5 500 1187.5 250 500 1187.5
187.5 500 1187.5 125 500 1187.5 62.5 500 1187.5 0
500 1187.5 500 437.5 1187.5 437.5 437.5 1187.5 375 437.5
1187.5 312.5 437.5 1187.5 250 437.5 1187.5 187.5 437.5 1187.5
125 437.5 1187.5 62.5 437.5 1187.5 0 437.5 1187.5 500
375 1187.5 437.5 375 1187.5 375 375 1187.5 312.5 375
1187.5 250 375 1187.5 187.5 375 1187.5 125 375 1187.5
62.5 375 1187.5 0 375 1187.5 500 312.5 1187.5 437.5
312.5 1187.5 375 312.5 1187.5 312.5 312.5 1187.5 250 312.5
1187.5 187.5 312.5 1187.5 125 312.5 1187.5 62.5 312.5 1187.5
0 312.5 1187.5 500 250 1187.5 437.5 250 1187.5 375
250 1187.5 312.5 250 1187.5 250 250 1187.5 187.5 250
1187.5 125 250 1187.5 62.5 250 1187.5 0 250 1187.5
500 187.5 1187.5 437.5 187.5 1187.5 375 187.5 1187.5 312.5
187.5 1187.5 250 187.5 1187.5 187.5 187.5 1187.5 125 187.5
1187.5 62.5 187.5 1187.5 0 187.5 1187.5 500 125 1187.5
437.5 125 1187.5 375 125 1187.5 312.5 125 1187.5 250
125 1187.5 187.5 125 1187.5 125 125 1187.5 62.5 125
1187.5 0 125 1187.5 500 62.5 1187.5 437.5 62.5 1187.5
375 62.5 1187.5 312.5 62.5 1187.5 250 62.5 1187.5 187.5
62.5 1187.5 125 62.5 1187.5 62.5 62.5 1187.5 0 62.5
1187.5 500 0 1187.5 437.5 0 1187.5 375 0 1187.5
312.5 0 1187.5 250 0 1187.5 187.5 0 1187.5 125
0 1187.5 62.5 0 1187.5 0 0 1187.5 500 500
1125 437.5 500 1125 375 500 1125 312.5 500 1125
250 500 1125 187.5 500 1125 125 500 1125 62.5
500 1125 0 500 1125 500 437.5 1125 437.5 437.5
1125 375 437.5 1125 312.5 437.5 1125 250 437.5 1125
187.5 437.5 1125 125 437.5 1125 62.5 437.5 1125 0
437.5 1125 500 375 1125 437.5 375 1125 375 375
1125 312.5 375 1125 250 375 1125 187.5 375 1125
125 375 1125 62.5 375 1125 0 375 1125 500
312.5 1125 437.5 312.5 1125 375 312.5 1125 312.5 312.5
1125 250 312.5 1125 187.5 312.5 1125 125 312.5 1125
62.5 312.5 1125 0 312.5 1125 500 250 1125 437.5
250 1125 375 250 1125 312.5 250 1125 250 250
1125 187.5 250 1125 125 250 1125 62.5 250 1125
0 250 1125 500 187.5 1125 437.5 187.5 1125 375
187.5 1125 312.5 187.5 1125 250 187.5 1125 187.5 187.5
1125 125 187.5 1125 62.5 187.5 1125 0 187.5 1125
500 125 1125 437.5 125 1125 375 125 1125 312.5
125 1125 250 125 1125 187.5 125 1125 125 125
1125 62.5 125 1125 0 125 1125 500 62.5 1125
437.5 62.5 1125 375 62.5 1125 312.5 62.5 1125 250
62.5 1125 187.5 62.5 1125 125 62.5 1125 62.5 62.5
1125 0 62.5 1125 500 0 1125 437.5 0 1125
375 0 1125 312.5 0 1125 250 0 1125 187.5
0 1125 125 0 1125 62.5 0 1125 0 0
1125 500 500 1062.5 437.5 500 1062.5 375 500 1062.5
312.5 500 1062.5 250 500 1062.5 187.5 500 1062.5 125
500 1062.5 62.5 500 1062.5 0 500 1062.5 500 437.5
1062.5 437.5 437.5 1062.5 375 437.5 1062.5 312.5 437.5 1062.5
250 437.5 1062.5 187.5 437.5 1062.5 125 437.5 1062.5 62.5
437.5 1062.5 0 437.5 1062.5 500 375 1062.5 437.5 375
1062.5 375 375 1062.5 312.5 375 1062.5 250 375 1062.5
187.5 375 1062.5 125 375 1062.5 62.5 375 1062.5 0
375 1062.5 500 312.5 1062.5 437.5 312.5 1062.5 375 312.5
1062.5 312.5 312.5 1062.5 250 312.5 1062.5 187.5 312.5 1062.5
125 312.5 1062.5 62.5 312.5 1062.5 0 312.5 1062.5 500
250 1062.5 437.5 250 1062.5 375 250 1062.5 312.5 250
1062.5 250 250 1062.5 187.5 250 1062.5 125 250 1062.5
62.5 250 1062.5 0 250 1062.5 500 187.5 1062.5 437.5
187.5 1062.5 375 187.5 1062.5 312.5 187.5 1062.5 250 187.5
1062.5 187.5 187.5 1062.5 125 187.5 1062.5 62.5 187.5 1062.5
0 187.5 1062.5 500 125 1062.5 437.5 125 1062.5 375
125 1062.5 312.5 125 1062.5 250 125 1062.5 187.5 125
1062.5 125 125 1062.5 62.5 125 1062.5 0 125 1062.5
500 62.5 1062.5 437.5 62.5 1062.5 375 62.5 1062.5 312.5
62.5 1062.5 250 62.5 1062.5 187.5 62.5 1062.5 125 62.5
[...]
<PointData>
<DataArray type="Float64" Name="ux" NumberOfComponents="1" format="ascii">
4.74839e-012 1.06612e-007 6.69134e-008 2.58207e-008 5.47934e-016 -2.58207e-008 -6.69134e-008 -1.06612e-007 -4.74839e-012 9.49676e-012
6.40507e-008 5.42299e-008 2.48401e-008 4.35676e-016 -2.48401e-008 -5.42299e-008 -6.40507e-008 -9.49676e-012 9.49675e-012 2.04822e-008
2.89038e-008 1.7224e-008 -1.43721e-015 -1.7224e-008 -2.89038e-008 -2.04822e-008 -9.49675e-012 9.49675e-012 9.75558e-009 1.35412e-008
9.71271e-009 1.06592e-016 -9.71271e-009 -1.35412e-008 -9.75558e-009 -9.49675e-012 9.49675e-012 6.5372e-009 9.74263e-009 6.97224e-009
8.45557e-016 -6.97224e-009 -9.74263e-009 -6.53719e-009 -9.49675e-012 9.49675e-012 9.75558e-009 1.35412e-008 9.71271e-009 1.91418e-015
-9.71271e-009 -1.35412e-008 -9.75558e-009 -9.49675e-012 9.49675e-012 2.04822e-008 2.89038e-008 1.7224e-008 -3.18383e-016 -1.7224e-008
-2.89038e-008 -2.04822e-008 -9.49675e-012 9.49676e-012 6.40507e-008 5.42299e-008 2.48401e-008 2.05918e-015 -2.48401e-008 -5.42299e-008
-6.40507e-008 -9.49676e-012 4.74839e-012 1.06612e-007 6.69134e-008 2.58207e-008 -2.3785e-016 -2.58207e-008 -6.69134e-008 -1.06612e-007
-4.74839e-012 9.49675e-012 -2.14056e-007 -3.58686e-008 -1.13849e-008 -4.10144e-016 1.13849e-008 3.58686e-008 2.14056e-007 -9.49675e-012
1.89935e-011 -3.19149e-008 -3.38787e-008 -8.73351e-009 -1.74618e-015 8.7335e-009 3.38787e-008 3.19149e-008 -1.89935e-011 1.89935e-011
-1.377e-008 -8.27285e-009 -5.17374e-009 -7.3091e-018 5.17373e-009 8.27285e-009 1.377e-008 -1.89935e-011 1.89935e-011 -1.66513e-009
-3.31178e-009 -1.35628e-009 7.00074e-016 1.35628e-009 3.31178e-009 1.66513e-009 -1.89935e-011 1.89935e-011 -1.11522e-009 -9.62745e-010
-8.5389e-010 8.83911e-016 8.53891e-010 9.62748e-010 1.11522e-009 -1.89935e-011 1.89935e-011 -1.66513e-009 -3.31178e-009 -1.35628e-009
1.14142e-015 1.35628e-009 3.31178e-009 1.66513e-009 -1.89935e-011 1.89935e-011 -1.377e-008 -8.27285e-009 -5.17374e-009 1.03873e-015
5.17374e-009 8.27286e-009 1.377e-008 -1.89935e-011 1.89935e-011 -3.19149e-008 -3.38787e-008 -8.73351e-009 -8.24994e-017 8.73351e-009
3.38787e-008 3.19149e-008 -1.89935e-011 9.49675e-012 -2.14056e-007 -3.58686e-008 -1.13849e-008 8.65687e-016 1.13849e-008 3.58686e-008
2.14056e-007 -9.49675e-012 9.49675e-012 -5.1117e-008 -6.6884e-008 -2.52275e-008 -7.73798e-016 2.52275e-008 6.6884e-008 5.1117e-008
-9.49675e-012 1.89935e-011 -4.67221e-008 -4.22188e-008 -2.21593e-008 5.58571e-016 2.21593e-008 4.22188e-008 4.67221e-008 -1.89935e-011
1.89935e-011 -1.70619e-008 -2.21117e-008 -1.30508e-008 9.51713e-016 1.30508e-008 2.21117e-008 1.70619e-008 -1.89935e-011 1.89935e-011
-9.0817e-009 -1.08437e-008 -7.16244e-009 1.37345e-015 7.16244e-009 1.08437e-008 9.0817e-009 -1.89935e-011 1.89935e-011 -5.54613e-009
-7.95019e-009 -5.27e-009 1.72476e-015 5.27e-009 7.95019e-009 5.54613e-009 -1.89935e-011 1.89935e-011 -9.0817e-009 -1.08437e-008
-7.16244e-009 9.27603e-016 7.16244e-009 1.08437e-008 9.0817e-009 -1.89935e-011 1.89935e-011 -1.70619e-008 -2.21117e-008 -1.30508e-008
1.85131e-015 1.30508e-008 2.21117e-008 1.70619e-008 -1.89935e-011 1.89935e-011 -4.67221e-008 -4.22188e-008 -2.21593e-008 9.87686e-016
2.21593e-008 4.22188e-008 4.67221e-008 -1.89935e-011 9.49675e-012 -5.1117e-008 -6.6884e-008 -2.52275e-008 8.09976e-017 2.52275e-008
6.6884e-008 5.1117e-008 -9.49675e-012 9.49675e-012 -2.73809e-008 -3.30893e-008 -2.2321e-008 9.94452e-016 2.2321e-008 3.30893e-008
2.73809e-008 -9.49675e-012 1.89935e-011 -2.25769e-008 -2.93854e-008 -1.81358e-008 7.31478e-016 1.81358e-008 2.93854e-008 2.25769e-008
-1.89935e-011 1.89935e-011 -1.52535e-008 -1.8796e-008 -1.22021e-008 5.00168e-016 1.22021e-008 1.8796e-008 1.52535e-008 -1.89935e-011
1.89935e-011 -8.42156e-009 -1.15847e-008 -7.75686e-009 2.29809e-015 7.75687e-009 1.15847e-008 8.42156e-009 -1.89935e-011 1.89935e-011
-6.86355e-009 -9.14527e-009 -6.26218e-009 1.89736e-015 6.26218e-009 9.14527e-009 6.86355e-009 -1.89935e-011 1.89935e-011 -8.42156e-009
-1.15847e-008 -7.75686e-009 1.67293e-015 7.75686e-009 1.15847e-008 8.42156e-009 -1.89935e-011 1.89935e-011 -1.52535e-008 -1.8796e-008
-1.22021e-008 1.12479e-015 1.22021e-008 1.8796e-008 1.52535e-008 -1.89935e-011 1.89935e-011 -2.25769e-008 -2.93854e-008 -1.81358e-008
-6.73428e-016 1.81358e-008 2.93854e-008 2.25769e-008 -1.89935e-011 9.49675e-012 -2.73809e-008 -3.30893e-008 -2.2321e-008 1.03302e-015
2.2321e-008 3.30893e-008 2.73809e-008 -9.49675e-012 9.49675e-012 -1.30919e-008 -1.80951e-008 -1.21631e-008 1.57321e-015 1.21631e-008
1.80951e-008 1.30919e-008 -9.49675e-012 1.89935e-011 -1.19482e-008 -1.61652e-008 -1.10885e-008 5.41902e-016 1.10885e-008 1.61652e-008
1.19482e-008 -1.89935e-011 1.89935e-011 -9.03328e-009 -1.23634e-008 -8.34758e-009 1.42634e-015 8.34758e-009 1.23634e-008 9.03328e-009
-1.89935e-011 1.89935e-011 -6.50517e-009 -8.81609e-009 -6.05858e-009 2.08579e-015 6.05858e-009 8.81609e-009 6.50517e-009 -1.89935e-011
1.89935e-011 -5.39132e-009 -7.52294e-009 -5.19598e-009 2.60572e-015 5.19598e-009 7.52294e-009 5.39132e-009 -1.89935e-011 1.89935e-011
-6.50517e-009 -8.81609e-009 -6.05858e-009 6.63422e-016 6.05858e-009 8.81609e-009 6.50517e-009 -1.89935e-011 1.89935e-011 -9.03328e-009
-1.23634e-008 -8.34758e-009 7.53708e-016 8.34758e-009 1.23634e-008 9.03328e-009 -1.89935e-011 1.89935e-011 -1.19482e-008 -1.61652e-008
-1.10885e-008 7.77999e-016 1.10885e-008 1.61652e-008 1.19482e-008 -1.89935e-011 9.49675e-012 -1.30919e-008 -1.80951e-008 -1.21631e-008
3.06247e-016 1.21631e-008 1.80951e-008 1.30919e-008 -9.49675e-012 9.49675e-012 -6.57221e-009 -9.14097e-009 -6.40564e-009 2.088e-015
6.40564e-009 9.14097e-009 6.57221e-009 -9.49675e-012 1.89935e-011 -6.1191e-009 -8.55393e-009 -5.95389e-009 2.05978e-015 5.95389e-009
8.55393e-009 6.11911e-009 -1.89935e-011 1.89935e-011 -5.09743e-009 -7.0963e-009 -4.95317e-009 1.77557e-015 4.95317e-009 7.09631e-009
5.09743e-009 -1.89935e-011 1.89935e-011 -4.08884e-009 -5.71806e-009 -3.977e-009 1.47085e-015 3.977e-009 5.71806e-009 4.08884e-009
-1.89935e-011 1.89935e-011 -3.69995e-009 -5.14749e-009 -3.59363e-009 1.07751e-015 3.59363e-009 5.14749e-009 3.69995e-009 -1.89935e-011
1.89935e-011 -4.08884e-009 -5.71806e-009 -3.977e-009 9.0772e-016 3.977e-009 5.71806e-009 4.08884e-009 -1.89935e-011 1.89935e-011
-5.09743e-009 -7.0963e-009 -4.95317e-009 -2.59461e-016 4.95317e-009 7.09631e-009 5.09743e-009 -1.89935e-011 1.89935e-011 -6.11911e-009
-8.55393e-009 -5.95389e-009 2.29156e-016 5.95389e-009 8.55393e-009 6.1191e-009 -1.89935e-011 9.49675e-012 -6.57221e-009 -9.14097e-009
-6.40564e-009 1.0549e-015 6.40564e-009 9.14097e-009 6.57221e-009 -9.49675e-012 9.49675e-012 -3.25283e-009 -4.58733e-009 -3.22407e-009
1.97167e-015 3.22407e-009 4.58733e-009 3.25284e-009 -9.49675e-012 1.89935e-011 -3.10317e-009 -4.37007e-009 -3.07651e-009 1.55491e-015
3.07651e-009 4.37007e-009 3.10317e-009 -1.89935e-011 1.89935e-011 -2.73769e-009 -3.86066e-009 -2.7139e-009 1.27731e-015 2.7139e-009
3.86067e-009 2.7377e-009 -1.89935e-011 1.89935e-011 -2.38111e-009 -3.35211e-009 -2.35758e-009 1.30129e-015 2.35758e-009 3.35211e-009
2.38111e-009 -1.89935e-011 1.89935e-011 -2.23145e-009 -3.14604e-009 -2.20894e-009 5.88869e-016 2.20894e-009 3.14604e-009 2.23145e-009
-1.89935e-011 1.89935e-011 -2.38111e-009 -3.35211e-009 -2.35758e-009 1.0858e-016 2.35758e-009 3.35211e-009 2.38111e-009 -1.89935e-011
1.89935e-011 -2.7377e-009 -3.86067e-009 -2.7139e-009 -8.49347e-016 2.7139e-009 3.86067e-009 2.73769e-009 -1.89935e-011 1.89935e-011
-3.10317e-009 -4.37007e-009 -3.07651e-009 -6.34993e-016 3.07651e-009 4.37007e-009 3.10317e-009 -1.89935e-011 9.49675e-012 -3.25283e-009
-4.58733e-009 -3.22407e-009 -1.2076e-016 3.22407e-009 4.58733e-009 3.25283e-009 -9.49675e-012 9.49675e-012 -1.60369e-009 -2.26938e-009
-1.60327e-009 1.06668e-015 1.60327e-009 2.26938e-009 1.60369e-009 -9.49675e-012 1.89935e-011 -1.55175e-009 -2.19811e-009 -1.55197e-009
1.30503e-015 1.55197e-009 2.19811e-009 1.55175e-009 -1.89935e-011 1.89935e-011 -1.42756e-009 -2.02395e-009 -1.42946e-009 1.11556e-015
1.42946e-009 2.02396e-009 1.42756e-009 -1.89935e-011 1.89935e-011 -1.30474e-009 -1.85069e-009 -1.30645e-009 1.41137e-015 1.30645e-009
1.85069e-009 1.30474e-009 -1.89935e-011 1.89935e-011 -1.25448e-009 -1.77853e-009 -1.25585e-009 5.52249e-016 1.25585e-009 1.77853e-009
1.25448e-009 -1.89935e-011 1.89935e-011 -1.30474e-009 -1.85069e-009 -1.30645e-009 6.09544e-016 1.30645e-009 1.85069e-009 1.30474e-009
-1.89935e-011 1.89935e-011 -1.42756e-009 -2.02396e-009 -1.42946e-009 -2.40481e-016 1.42946e-009 2.02395e-009 1.42756e-009 -1.89935e-011
1.89935e-011 -1.55175e-009 -2.19811e-009 -1.55197e-009 -9.25912e-016 1.55197e-009 2.19811e-009 1.55175e-009 -1.89935e-011 9.49675e-012
-1.60369e-009 -2.26938e-009 -1.60327e-009 -9.32018e-016 1.60327e-009 2.26938e-009 1.60369e-009 -9.49675e-012 9.49675e-012 -7.83864e-010
-1.11485e-009 -7.89052e-010 9.67401e-016 7.89053e-010 1.11485e-009 7.83866e-010 -9.49675e-012 1.89935e-011 -7.66665e-010 -1.09147e-009
-7.72619e-010 6.81613e-016 7.7262e-010 1.09147e-009 7.66667e-010 -1.89935e-011 1.89935e-011 -7.24973e-010 -1.03484e-009 -7.32667e-010
6.68598e-016 7.32668e-010 1.03484e-009 7.24974e-010 -1.89935e-011 1.89935e-011 -6.85029e-010 -9.78063e-010 -6.9272e-010 3.24946e-016
6.92721e-010 9.78064e-010 6.85028e-010 -1.89935e-011 1.89935e-011 -6.68418e-010 -9.54721e-010 -6.76088e-010 -2.72997e-016 6.76087e-010
9.54721e-010 6.68417e-010 -1.89935e-011 1.89935e-011 -6.85029e-010 -9.78064e-010 -6.92721e-010 -2.45879e-016 6.92721e-010 9.78063e-010
6.85028e-010 -1.89935e-011 1.89935e-011 -7.24974e-010 -1.03484e-009 -7.32668e-010 -9.04012e-016 7.32667e-010 1.03484e-009 7.24973e-010
-1.89935e-011 1.89935e-011 -7.66667e-010 -1.09147e-009 -7.72621e-010 -1.40477e-015 7.72619e-010 1.09147e-009 7.66665e-010 -1.89935e-011
9.49675e-012 -7.83867e-010 -1.11485e-009 -7.89054e-010 -1.32489e-015 7.89052e-010 1.11485e-009 7.83864e-010 -9.49675e-012 9.49675e-012
-3.78964e-010 -5.42972e-010 -3.85383e-010 -1.34171e-017 3.85383e-010 5.42972e-010 3.78965e-010 -9.49675e-012 1.89935e-011 -3.73047e-010
-5.35759e-010 -3.80237e-010 3.09378e-016 3.80237e-010 5.35759e-010 3.73047e-010 -1.89935e-011 1.89935e-011 -3.58798e-010 -5.17865e-010
-3.67808e-010 -1.81189e-016 3.67808e-010 5.17864e-010 3.58797e-010 -1.89935e-011 1.89935e-011 -3.46229e-010 -5.00009e-010 -3.55331e-010
-7.07417e-016 3.5533e-010 5.00009e-010 3.46229e-010 -1.89935e-011 1.89935e-011 -3.41067e-010 -4.92695e-010 -3.50158e-010 -5.70367e-016
3.50157e-010 4.92694e-010 3.41066e-010 -1.89935e-011 1.89935e-011 -3.46229e-010 -5.00009e-010 -3.55332e-010 -1.4208e-015 3.55331e-010
5.00008e-010 3.46228e-010 -1.89935e-011 1.89935e-011 -3.58798e-010 -5.17865e-010 -3.67809e-010 -7.5843e-016 3.67807e-010 5.17863e-010
3.58797e-010 -1.89935e-011 1.89935e-011 -3.73048e-010 -5.3576e-010 -3.80238e-010 -1.27947e-015 3.80235e-010 5.35758e-010 3.73047e-010
-1.89935e-011 9.49675e-012 -3.78965e-010 -5.42973e-010 -3.85385e-010 -1.38301e-015 3.85382e-010 5.42972e-010 3.78963e-010 -9.49675e-012
9.49675e-012 -1.79639e-010 -2.61296e-010 -1.8633e-010 -3.7794e-016 1.86329e-010 2.61296e-010 1.79639e-010 -9.49675e-012 1.89935e-011
-1.77318e-010 -2.59146e-010 -1.8479e-010 2.5943e-016 1.8479e-010 2.59145e-010 1.77317e-010 -1.89935e-011 1.89935e-011 -1.71732e-010
-2.53534e-010 -1.81041e-010 -7.38051e-016 1.8104e-010 2.53533e-010 1.71731e-010 -1.89935e-011 1.89935e-011 -1.67857e-010 -2.4796e-010
-1.77271e-010 -7.96984e-016 1.7727e-010 2.47959e-010 1.67856e-010 -1.89935e-011 1.89935e-011 -1.66283e-010 -2.45758e-010 -1.75698e-010
-7.74271e-016 1.75695e-010 2.45755e-010 1.66282e-010 -1.89935e-011 1.89935e-011 -1.67856e-010 -2.47961e-010 -1.77272e-010 -4.49071e-016
1.7727e-010 2.47958e-010 1.67855e-010 -1.89935e-011 1.89935e-011 -1.71732e-010 -2.53535e-010 -1.81041e-010 -1.10479e-015 1.8104e-010
2.53533e-010 1.71731e-010 -1.89935e-011 1.89935e-011 -1.77319e-010 -2.59146e-010 -1.84791e-010 -4.58258e-016 1.84789e-010 2.59144e-010
1.77317e-010 -1.89935e-011 9.49675e-012 -1.7964e-010 -2.61297e-010 -1.8633e-010 -1.52682e-015 1.86329e-010 2.61297e-010 1.79639e-010
-9.49675e-012 9.49675e-012 -8.18767e-011 -1.23081e-010 -8.86301e-011 2.73859e-017 8.86303e-011 1.23082e-010 8.18767e-011 -9.49675e-012
1.89935e-011 -8.06343e-011 -1.22462e-010 -8.81701e-011 5.19548e-016 8.81712e-011 1.2246e-010 8.06325e-011 -1.89935e-011 1.89935e-011
-7.76571e-011 -1.20539e-010 -8.70337e-011 1.51189e-016 8.70334e-011 1.20537e-010 7.76559e-011 -1.89935e-011 1.89935e-011 -7.63921e-011
-1.18662e-010 -8.58775e-011 -2.89682e-016 8.58765e-011 1.18661e-010 7.6391e-011 -1.89935e-011 1.89935e-011 -7.59036e-011 -1.17989e-010
-8.53888e-011 -9.54652e-016 8.53865e-011 1.17987e-010 7.59029e-011 -1.89935e-011 1.89935e-011 -7.63924e-011 -1.18663e-010 -8.58782e-011
-7.56551e-016 8.58757e-011 1.1866e-010 7.63907e-011 -1.89935e-011 1.89935e-011 -7.76579e-011 -1.2054e-010 -8.70351e-011 -9.01903e-016
8.70328e-011 1.20537e-010 7.76566e-011 -1.89935e-011 1.89935e-011 -8.06353e-011 -1.22462e-010 -8.81708e-011 -3.67657e-016 8.81696e-011
1.2246e-010 8.06337e-011 -1.89935e-011 9.49675e-012 -8.18774e-011 -1.23083e-010 -8.86309e-011 -9.1024e-016 8.86294e-011 1.2308e-010
8.18759e-011 -9.49675e-012 9.49675e-012 -3.41004e-011 -5.55264e-011 -4.08682e-011 1.12276e-015 4.08699e-011 5.55268e-011 3.40998e-011
-9.49675e-012 1.89935e-011 -3.31645e-011 -5.53387e-011 -4.07143e-011 9.00767e-016 4.07151e-011 5.53384e-011 3.31641e-011 -1.89935e-011
1.89935e-011 -3.09264e-011 -5.44628e-011 -4.03182e-011 4.17161e-017 4.03182e-011 5.44623e-011 3.09256e-011 -1.89935e-011 1.89935e-011
-3.04019e-011 -5.36326e-011 -3.99017e-011 3.47558e-016 3.99016e-011 5.36315e-011 3.04012e-011 -1.89935e-011 1.89935e-011 -3.02188e-011
-5.33926e-011 -3.972e-011 -6.17537e-016 3.97185e-011 5.33914e-011 3.02181e-011 -1.89935e-011 1.89935e-011 -3.04013e-011 -5.36326e-011
-3.99032e-011 -1.52935e-015 3.99004e-011 5.3631e-011 3.0401e-011 -1.89935e-011 1.89935e-011 -3.09274e-011 -5.44632e-011 -4.0319e-011
-1.1098e-015 4.03165e-011 5.44618e-011 3.0926e-011 -1.89935e-011 1.89935e-011 -3.31658e-011 -5.534e-011 -4.07163e-011 -1.02824e-015
4.07142e-011 5.5338e-011 3.3164e-011 -1.89935e-011 9.49675e-012 -3.41009e-011 -5.55279e-011 -4.08701e-011 -3.76823e-016 4.08681e-011
5.5526e-011 3.41004e-011 -9.49675e-012 9.49675e-012 -1.08436e-011 -2.26384e-011 -1.76149e-011 1.80426e-016 1.7615e-011 2.26385e-011
1.08437e-011 -9.49675e-012 1.89935e-011 -9.98774e-012 -2.25638e-011 -1.75414e-011 -4.31315e-016 1.75415e-011 2.25637e-011 9.98757e-012
-1.89935e-011 1.89935e-011 -7.94361e-012 -2.19619e-011 -1.73377e-011 -5.28282e-016 1.73372e-011 2.19616e-011 7.94303e-012 -1.89935e-011
1.89935e-011 -7.61124e-012 -2.14045e-011 -1.71163e-011 -5.84274e-016 1.71151e-011 2.14042e-011 7.61164e-012 -1.89935e-011 1.89935e-011
-7.50922e-012 -2.1279e-011 -1.70134e-011 -8.27671e-016 1.70121e-011 2.12785e-011 7.50908e-012 -1.89935e-011 1.89935e-011 -7.61187e-012
-2.14056e-011 -1.71166e-011 -1.01572e-015 1.71149e-011 2.14042e-011 7.61074e-012 -1.89935e-011 1.89935e-011 -7.94367e-012 -2.19624e-011
-1.73391e-011 -1.54732e-015 1.73366e-011 2.19605e-011 7.94287e-012 -1.89935e-011 1.89935e-011 -9.98851e-012 -2.2565e-011 -1.75433e-011
-1.4349e-015 1.75403e-011 2.25628e-011 9.98698e-012 -1.89935e-011 9.49675e-012 -1.0844e-011 -2.26392e-011 -1.76164e-011 -1.40683e-015
1.76141e-011 2.26375e-011 1.08429e-011 -9.49675e-012 9.49675e-012 4.33121e-013 -6.692e-012 -6.33987e-012 -6.10219e-016 6.33927e-012
6.69206e-012 -4.32459e-013 -9.49675e-012 1.89935e-011 1.27035e-012 -6.64344e-012 -6.28484e-012 -6.9574e-016 6.28378e-012 6.64335e-012
-1.26993e-012 -1.89935e-011 1.89935e-011 3.27007e-012 -6.10476e-012 -6.1266e-012 -1.34129e-015 6.12511e-012 6.10422e-012 -3.26997e-012
-1.89935e-011 1.89935e-011 3.55673e-012 -5.61119e-012 -5.94875e-012 -1.22198e-015 5.94704e-012 5.61074e-012 -3.55693e-012 -1.89935e-011
1.89935e-011 3.64111e-012 -5.51121e-012 -5.86541e-012 -1.26342e-015 5.86372e-012 5.51058e-012 -3.6408e-012 -1.89935e-011 1.89935e-011
3.55667e-012 -5.61141e-012 -5.94898e-012 -1.22031e-015 5.94692e-012 5.6101e-012 -3.55709e-012 -1.89935e-011 1.89935e-011 3.26963e-012
-6.1054e-012 -6.12728e-012 -9.48774e-016 6.12467e-012 6.10359e-012 -3.27032e-012 -1.89935e-011 1.89935e-011 1.26965e-012 -6.6445e-012
-6.28609e-012 -1.34015e-015 6.28365e-012 6.64263e-012 -1.27088e-012 -1.89935e-011 9.49675e-012 4.32001e-013 -6.69316e-012 -6.34161e-012
-1.64885e-015 6.33879e-012 6.69127e-012 -4.33423e-013 -9.49675e-012 9.49675e-012 5.87853e-012 1.0094e-012 -8.94286e-013 -5.70314e-016
8.931e-013 -1.00977e-012 -5.87851e-012 -9.49675e-012 1.89935e-011 6.71277e-012 1.05312e-012 -8.42796e-013 -1.00438e-015 8.41757e-013
-1.05381e-012 -6.71324e-012 -1.89935e-011 1.89935e-011 8.70484e-012 1.58156e-012 -6.91882e-013 -1.1342e-015 6.90125e-013 -1.582e-012
-8.70545e-012 -1.89935e-011 1.89935e-011 8.98385e-012 2.06351e-012 -5.21941e-013 -1.00227e-015 5.19901e-013 -2.06435e-012 -8.98382e-012
-1.89935e-011 1.89935e-011 9.06463e-012 2.15941e-012 -4.41632e-013 -9.46208e-016 4.39558e-013 -2.16022e-012 -9.0648e-012 -1.89935e-011
1.89935e-011 8.98409e-012 2.06415e-012 -5.21641e-013 -1.25106e-015 5.19717e-013 -2.06489e-012 -8.98422e-012 -1.89935e-011 1.89935e-011
8.70474e-012 1.58129e-012 -6.92277e-013 -1.39771e-015 6.8991e-013 -1.58298e-012 -8.70508e-012 -1.89935e-011 1.89935e-011 6.71284e-012
1.05307e-012 -8.43035e-013 -1.60563e-015 8.40804e-013 -1.0545e-012 -6.71342e-012 -1.89935e-011 9.49675e-012 5.87892e-012 1.00921e-012
-8.949e-013 -1.54187e-015 8.92595e-013 -1.01061e-012 -5.87916e-012 -9.49675e-012 9.49675e-012 8.50055e-012 4.71692e-012 1.72748e-012
-5.67374e-016 -1.72866e-012 -4.7187e-012 -8.50153e-012 -9.49675e-012 1.89935e-011 9.3348e-012 4.76069e-012 1.77922e-012 -6.25276e-016
-1.78121e-012 -4.76254e-012 -9.33546e-012 -1.89935e-011 1.89935e-011 1.13266e-011 5.28891e-012 1.93002e-012 -1.14438e-015 -1.93187e-012
-5.29011e-012 -1.1327e-011 -1.89935e-011 1.89935e-011 1.16055e-011 5.7712e-012 2.09983e-012 -1.04899e-015 -2.1017e-012 -5.77236e-012
-1.16061e-011 -1.89935e-011 1.89935e-011 1.16863e-011 5.86664e-012 2.18057e-012 -9.27398e-016 -2.18257e-012 -5.86828e-012 -1.16868e-011
-1.89935e-011 1.89935e-011 1.16058e-011 5.77136e-012 2.09938e-012 -1.01371e-015 -2.10193e-012 -5.7729e-012 -1.16062e-011 -1.89935e-011
1.89935e-011 1.13271e-011 5.28929e-012 1.93043e-012 -1.14716e-015 -1.93207e-012 -5.29035e-012 -1.13275e-011 -1.89935e-011 1.89935e-011
9.33517e-012 4.7615e-012 1.77893e-012 -1.23826e-015 -1.78135e-012 -4.76278e-012 -9.33559e-012 -1.89935e-011 9.49675e-012 8.50107e-012
4.71775e-012 1.72749e-012 -1.33624e-015 -1.72982e-012 -4.71887e-012 -8.5016e-012 -9.49675e-012 9.49675e-012 9.76193e-012 6.50066e-012
2.98816e-012 -1.03494e-015 -2.99019e-012 -6.50192e-012 -9.76236e-012 -9.49675e-012 1.89935e-011 1.05956e-011 6.5446e-012 3.04052e-012
-9.9125e-016 -3.04234e-012 -6.54626e-012 -1.0597e-011 -1.89935e-011 1.89935e-011 1.25885e-011 7.07331e-012 3.19206e-012 -7.93706e-016
-3.19418e-012 -7.07544e-012 -1.25893e-011 -1.89935e-011 1.89935e-011 1.28684e-011 7.55717e-012 3.36304e-012 -6.70024e-016 -3.36468e-012
-7.55914e-012 -1.28692e-011 -1.89935e-011 1.89935e-011 1.29494e-011 7.65317e-012 3.44353e-012 -9.14525e-016 -3.44555e-012 -7.6548e-012
-1.29505e-011 -1.89935e-011 1.89935e-011 1.28689e-011 7.55758e-012 3.36321e-012 -8.59743e-016 -3.36483e-012 -7.5593e-012 -1.287e-011
-1.89935e-011 1.89935e-011 1.25888e-011 7.07433e-012 3.19223e-012 -1.13996e-015 -3.19438e-012 -7.07565e-012 -1.25897e-011 -1.89935e-011
1.89935e-011 1.05964e-011 6.54485e-012 3.04079e-012 -6.60971e-016 -3.04272e-012 -6.54694e-012 -1.05973e-011 -1.89935e-011 9.49675e-012
9.76194e-012 6.50089e-012 2.98823e-012 -1.19803e-015 -2.9905e-012 -6.50243e-012 -9.76276e-012 -9.49675e-012 9.49675e-012 1.0368e-011
7.35767e-012 3.59428e-012 -6.97978e-016 -3.59578e-012 -7.35917e-012 -1.03687e-011 -9.49675e-012 1.89935e-011 1.12026e-011 7.40237e-012
3.64668e-012 -9.89972e-016 -3.64842e-012 -7.40387e-012 -1.12033e-011 -1.89935e-011 1.89935e-011 1.31957e-011 7.93223e-012 3.79925e-012