# vtk DataFile Version 2.0
domainTop, Created by Gmsh 4.14.0 
ASCII
DATASET UNSTRUCTURED_GRID
POINTS 125 double
0 0 0
8 0 0
8 1 0
0 1 0
0 0 1
8 0 1
8 1 1
0 1 1
8 0 0
16 0 0
16 1 0
8 1 0
8 0 1
16 0 1
16 1 1
8 1 1
2 0 0
4 0 0
6 0 0
8 0.5 0
6 1 0
4 1 0
2 1 0
0 0.5 0
0 0 0.5
8 0 0.5
2 0 1
4 0 1
6 0 1
8 1 0.5
8 0.5 1
0 1 0.5
6 1 1
4 1 1
2 1 1
0 0.5 1
10 0 0
12 0 0
14 0 0
16 0.3333333333333333 0
16 0.6666666666666666 0
14 1 0
12 1 0
10 1 0
8 0.6666666666666667 0
8 0.3333333333333334 0
8 0 0.3333333333333333
8 0 0.6666666666666666
16 0 0.3333333333333333
16 0 0.6666666666666666
10 0 1
12 0 1
14 0 1
16 1 0.3333333333333333
16 1 0.6666666666666666
16 0.3333333333333333 1
16 0.6666666666666666 1
8 1 0.3333333333333333
8 1 0.6666666666666666
14 1 1
12 1 1
10 1 1
8 0.6666666666666667 1
8 0.3333333333333334 1
2 0.5 0
4 0.5 0
6 0.5 0
2 0 0.5
4 0 0.5
6 0 0.5
8 0.5 0.5
6 1 0.5
4 1 0.5
2 1 0.5
0 0.5 0.5
2 0.5 1
4 0.5 1
6 0.5 1
10 0.3333333333333334 0
10 0.6666666666666666 0
12 0.3333333333333333 0
12 0.6666666666666666 0
14 0.3333333333333333 0
14 0.6666666666666666 0
10 0 0.3333333333333333
10 0 0.6666666666666666
12 0 0.3333333333333333
12 0 0.6666666666666666
14 0 0.3333333333333333
14 0 0.6666666666666666
16 0.3333333333333333 0.3333333333333333
16 0.3333333333333333 0.6666666666666666
16 0.6666666666666666 0.3333333333333333
16 0.6666666666666666 0.6666666666666666
14 1 0.3333333333333333
14 1 0.6666666666666666
12 1 0.3333333333333333
12 1 0.6666666666666666
10 1 0.3333333333333333
10 1 0.6666666666666666
8 0.6666666666666667 0.3333333333333333
8 0.6666666666666667 0.6666666666666666
8 0.3333333333333334 0.3333333333333333
8 0.3333333333333334 0.6666666666666666
10 0.3333333333333334 1
10 0.6666666666666666 1
12 0.3333333333333333 1
12 0.6666666666666666 1
14 0.3333333333333333 1
14 0.6666666666666666 1
2 0.5 0.5
4 0.5 0.5
6 0.5 0.5
10 0.3333333333333334 0.3333333333333333
10 0.3333333333333334 0.6666666666666666
10 0.6666666666666666 0.3333333333333333
10 0.6666666666666666 0.6666666666666666
12 0.3333333333333333 0.3333333333333333
12 0.3333333333333333 0.6666666666666666
12 0.6666666666666666 0.3333333333333333
12 0.6666666666666666 0.6666666666666666
14 0.3333333333333333 0.3333333333333333
14 0.3333333333333333 0.6666666666666666
14 0.6666666666666666 0.3333333333333333
14 0.6666666666666666 0.6666666666666666

CELLS 98 698
4 1 19 70 25
4 25 70 30 5
4 19 2 29 70
4 70 29 6 30
4 3 23 74 31
4 31 74 35 7
4 23 0 24 74
4 74 24 4 35
4 4 26 75 35
4 35 75 34 7
4 26 27 76 75
4 75 76 33 34
4 27 28 77 76
4 76 77 32 33
4 28 5 30 77
4 77 30 6 32
4 9 39 90 48
4 48 90 91 49
4 49 91 55 13
4 39 40 92 90
4 90 92 93 91
4 91 93 56 55
4 40 10 53 92
4 92 53 54 93
4 93 54 14 56
4 11 44 100 57
4 57 100 101 58
4 58 101 62 15
4 44 45 102 100
4 100 102 103 101
4 101 103 63 62
4 45 8 46 102
4 102 46 47 103
4 103 47 12 63
4 12 50 104 63
4 63 104 105 62
4 62 105 61 15
4 50 51 106 104
4 104 106 107 105
4 105 107 60 61
4 51 52 108 106
4 106 108 109 107
4 107 109 59 60
4 52 13 55 108
4 108 55 56 109
4 109 56 14 59
8 0 16 64 23 24 67 110 74
8 24 67 110 74 4 26 75 35
8 23 64 22 3 74 110 73 31
8 74 110 73 31 35 75 34 7
8 16 17 65 64 67 68 111 110
8 67 68 111 110 26 27 76 75
8 64 65 21 22 110 111 72 73
8 110 111 72 73 75 76 33 34
8 17 18 66 65 68 69 112 111
8 68 69 112 111 27 28 77 76
8 65 66 20 21 111 112 71 72
8 111 112 71 72 76 77 32 33
8 18 1 19 66 69 25 70 112
8 69 25 70 112 28 5 30 77
8 66 19 2 20 112 70 29 71
8 112 70 29 71 77 30 6 32
8 8 36 78 45 46 84 113 102
8 46 84 113 102 47 85 114 103
8 47 85 114 103 12 50 104 63
8 45 78 79 44 102 113 115 100
8 102 113 115 100 103 114 116 101
8 103 114 116 101 63 104 105 62
8 44 79 43 11 100 115 98 57
8 100 115 98 57 101 116 99 58
8 101 116 99 58 62 105 61 15
8 36 37 80 78 84 86 117 113
8 84 86 117 113 85 87 118 114
8 85 87 118 114 50 51 106 104
8 78 80 81 79 113 117 119 115
8 113 117 119 115 114 118 120 116
8 114 118 120 116 104 106 107 105
8 79 81 42 43 115 119 96 98
8 115 119 96 98 116 120 97 99
8 116 120 97 99 105 107 60 61
8 37 38 82 80 86 88 121 117
8 86 88 121 117 87 89 122 118
8 87 89 122 118 51 52 108 106
8 80 82 83 81 117 121 123 119
8 117 121 123 119 118 122 124 120
8 118 122 124 120 106 108 109 107
8 81 83 41 42 119 123 94 96
8 119 123 94 96 120 124 95 97
8 120 124 95 97 107 109 59 60
8 38 9 39 82 88 48 90 121
8 88 48 90 121 89 49 91 122
8 89 49 91 122 52 13 55 108
8 82 39 40 83 121 90 92 123
8 121 90 92 123 122 91 93 124
8 122 91 93 124 108 55 56 109
8 83 40 10 41 123 92 53 94
8 123 92 53 94 124 93 54 95
8 124 93 54 95 109 56 14 59

CELL_TYPES 98
9
9
9
9
9
9
9
9
9
9
9
9
9
9
9
9
9
9
9
9
9
9
9
9
9
9
9
9
9
9
9
9
9
9
9
9
9
9
9
9
9
9
9
9
9
9
12
12
12
12
12
12
12
12
12
12
12
12
12
12
12
12
12
12
12
12
12
12
12
12
12
12
12
12
12
12
12
12
12
12
12
12
12
12
12
12
12
12
12
12
12
12
12
12
12
12
12
12

CELL_DATA 98
SCALARS CellEntityIds int 1
LOOKUP_TABLE default
1
1
1
1
3
3
3
3
4
4
4
4
4
4
4
4
3
3
3
3
3
3
3
3
3
2
2
2
2
2
2
2
2
2
4
4
4
4
4
4
4
4
4
4
4
4
1
1
1
1
1
1
1
1
1
1
1
1
1
1
1
1
2
2
2
2
2
2
2
2
2
2
2
2
2
2
2
2
2
2
2
2
2
2
2
2
2
2
2
2
2
2
2
2
2
2
2
2
