<VTKFile type="UnstructuredGrid" version="1.0">
<UnstructuredGrid>
<FieldData>
<DataArray type="Float64" Name="TIME" NumberOfTuples="1" format="ascii" RangeMin="2.5" RangeMax="2.5">
2.5
</DataArray>
</FieldData>
<Piece NumberOfPoints="15756" NumberOfCells="12500">
<Points>
<DataArray type="Float64" NumberOfComponents="3" format="ascii">
0 0 400 100 0 400 100 25 400 0
25 400 0 0 403.75 100 0 403.75 100 25
403.75 0 25 403.75 1 0 400 2 0 400
3 0 400 4 0 400 5 0 400 6
0 400 7 0 400 8 0 400 9 0
400 10 0 400 11 0 400 12 0 400
13 0 400 14 0 400 15 0 400 16
0 400 17 0 400 18 0 400 19 0
400 20 0 400 21 0 400 22 0 400
23 0 400 24 0 400 25 0 400 26
0 400 27 0 400 28 0 400 29 0
400 30 0 400 31 0 400 32 0 400
33 0 400 34 0 400 35 0 400 36
0 400 37 0 400 38 0 400 39 0
400 40 0 400 41 0 400 42 0 400
43 0 400 44 0 400 45 0 400 46
0 400 47 0 400 48 0 400 49 0
400 50 0 400 51 0 400 52 0 400
53 0 400 54 0 400 55 0 400 56
0 400 57 0 400 58 0 400 59 0
400 60 0 400 61 0 400 62 0 400
63 0 400 64 0 400 65 0 400 66
0 400 67 0 400 68 0 400 69 0
400 70 0 400 71 0 400 72 0 400
73 0 400 74 0 400 75 0 400 76
0 400 77 0 400 78 0 400 79 0
400 80 0 400 81 0 400 82 0 400
83 0 400 84 0 400 85 0 400 86
0 400 87 0 400 88 0 400 89 0
400 90 0 400 91 0 400 92 0 400
93 0 400 94 0 400 95 0 400 96
0 400 97 0 400 98 0 400 99 0
400 100 1 400 100 2 400 100 3 400
100 4 400 100 5 400 100 6 400 100
7 400 100 8 400 100 9 400 100 10
400 100 11 400 100 12 400 100 13 400
100 14 400 100 15 400 100 16 400 100
17 400 100 18 400 100 19 400 100 20
400 100 21 400 100 22 400 100 23 400
100 24 400 99 25 400 98 25 400 97
25 400 96 25 400 95 25 400 94 25
400 93 25 400 92 25 400 91 25 400
90 25 400 89 25 400 88 25 400 87
25 400 86 25 400 85 25 400 84 25
400 83 25 400 82 25 400 81 25 400
80 25 400 79 25 400 78 25 400 77
25 400 76 25 400 75 25 400 74 25
400 73 25 400 72 25 400 71 25 400
70 25 400 69 25 400 68 25 400 67
25 400 66 25 400 65 25 400 64 25
400 63 25 400 62 25 400 61 25 400
60 25 400 59 25 400 58 25 400 57
25 400 56 25 400 55 25 400 54 25
400 53 25 400 52 25 400 51 25 400
50 25 400 49 25 400 48 25 400 47
25 400 46 25 400 45 25 400 44 25
400 43 25 400 42 25 400 41 25 400
40 25 400 39 25 400 38 25 400 37
25 400 36 25 400 35 25 400 34 25
400 33 25 400 32 25 400 31 25 400
30 25 400 29 25 400 28 25 400 27
25 400 26 25 400 25 25 400 24 25
400 23 25 400 22 25 400 21 25 400
20 25 400 19 25 400 18 25 400 17
25 400 16 25 400 15 25 400 14 25
400 13 25 400 12 25 400 11 25 400
10 25 400 9 25 400 8 25 400 7
25 400 6 25 400 5 25 400 4 25
400 3 25 400 2 25 400 1 25 400
0 24 400 0 23 400 0 22 400 0
21 400 0 20 400 0 19 400 0 18
400 0 17 400 0 16 400 0 15 400
0 14 400 0 13 400 0 12 400 0
11 400 0 10 400 0 9 400 0 8
400 0 7 400 0 6 400 0 5 400
0 4 400 0 3 400 0 2 400 0
1 400 1 0 403.75 2 0 403.75 3 0
403.75 4 0 403.75 5 0 403.75 6 0 403.75
7 0 403.75 8 0 403.75 9 0 403.75 10
0 403.75 11 0 403.75 12 0 403.75 13 0
403.75 14 0 403.75 15 0 403.75 16 0 403.75
17 0 403.75 18 0 403.75 19 0 403.75 20
0 403.75 21 0 403.75 22 0 403.75 23 0
403.75 24 0 403.75 25 0 403.75 26 0 403.75
27 0 403.75 28 0 403.75 29 0 403.75 30
0 403.75 31 0 403.75 32 0 403.75 33 0
403.75 34 0 403.75 35 0 403.75 36 0 403.75
37 0 403.75 38 0 403.75 39 0 403.75 40
0 403.75 41 0 403.75 42 0 403.75 43 0
403.75 44 0 403.75 45 0 403.75 46 0 403.75
47 0 403.75 48 0 403.75 49 0 403.75 50
0 403.75 51 0 403.75 52 0 403.75 53 0
403.75 54 0 403.75 55 0 403.75 56 0 403.75
57 0 403.75 58 0 403.75 59 0 403.75 60
0 403.75 61 0 403.75 62 0 403.75 63 0
403.75 64 0 403.75 65 0 403.75 66 0 403.75
67 0 403.75 68 0 403.75 69 0 403.75 70
0 403.75 71 0 403.75 72 0 403.75 73 0
403.75 74 0 403.75 75 0 403.75 76 0 403.75
77 0 403.75 78 0 403.75 79 0 403.75 80
0 403.75 81 0 403.75 82 0 403.75 83 0
403.75 84 0 403.75 85 0 403.75 86 0 403.75
87 0 403.75 88 0 403.75 89 0 403.75 90
0 403.75 91 0 403.75 92 0 403.75 93 0
403.75 94 0 403.75 95 0 403.75 96 0 403.75
97 0 403.75 98 0 403.75 99 0 403.75 100
1 403.75 100 2 403.75 100 3 403.75 100 4
403.75 100 5 403.75 100 6 403.75 100 7 403.75
100 8 403.75 100 9 403.75 100 10 403.75 100
11 403.75 100 12 403.75 100 13 403.75 100 14
403.75 100 15 403.75 100 16 403.75 100 17 403.75
100 18 403.75 100 19 403.75 100 20 403.75 100
21 403.75 100 22 403.75 100 23 403.75 100 24
403.75 99 25 403.75 98 25 403.75 97 25 403.75
96 25 403.75 95 25 403.75 94 25 403.75 93
25 403.75 92 25 403.75 91 25 403.75 90 25
403.75 89 25 403.75 88 25 403.75 87 25 403.75
86 25 403.75 85 25 403.75 84 25 403.75 83
25 403.75 82 25 403.75 81 25 403.75 80 25
403.75 79 25 403.75 78 25 403.75 77 25 403.75
76 25 403.75 75 25 403.75 74 25 403.75 73
25 403.75 72 25 403.75 71 25 403.75 70 25
403.75 69 25 403.75 68 25 403.75 67 25 403.75
66 25 403.75 65 25 403.75 64 25 403.75 63
25 403.75 62 25 403.75 61 25 403.75 60 25
403.75 59 25 403.75 58 25 403.75 57 25 403.75
56 25 403.75 55 25 403.75 54 25 403.75 53
25 403.75 52 25 403.75 51 25 403.75 50 25
403.75 49 25 403.75 48 25 403.75 47 25 403.75
46 25 403.75 45 25 403.75 44 25 403.75 43
25 403.75 42 25 403.75 41 25 403.75 40 25
403.75 39 25 403.75 38 25 403.75 37 25 403.75
36 25 403.75 35 25 403.75 34 25 403.75 33
25 403.75 32 25 403.75 31 25 403.75 30 25
403.75 29 25 403.75 28 25 403.75 27 25 403.75
26 25 403.75 25 25 403.75 24 25 403.75 23
25 403.75 22 25 403.75 21 25 403.75 20 25
403.75 19 25 403.75 18 25 403.75 17 25 403.75
16 25 403.75 15 25 403.75 14 25 403.75 13
25 403.75 12 25 403.75 11 25 403.75 10 25
403.75 9 25 403.75 8 25 403.75 7 25 403.75
6 25 403.75 5 25 403.75 4 25 403.75 3
25 403.75 2 25 403.75 1 25 403.75 0 24
403.75 0 23 403.75 0 22 403.75 0 21 403.75
0 20 403.75 0 19 403.75 0 18 403.75 0
17 403.75 0 16 403.75 0 15 403.75 0 14
403.75 0 13 403.75 0 12 403.75 0 11 403.75
0 10 403.75 0 9 403.75 0 8 403.75 0
7 403.75 0 6 403.75 0 5 403.75 0 4
403.75 0 3 403.75 0 2 403.75 0 1 403.75
0 0 400.75 0 0 401.5 0 0 402.25 0
0 403 100 0 400.75 100 0 401.5 100 0
402.25 100 0 403 100 25 400.75 100 25 401.5
100 25 402.25 100 25 403 0 25 400.75 0
25 401.5 0 25 402.25 0 25 403 1 1
400 1 2 400 1 3 400 1 4 400
1 5 400 1 6 400 1 7 400 1
8 400 1 9 400 1 10 400 1 11
400 1 12 400 1 13 400 1 14 400
1 15 400 1 16 400 1 17 400 1
18 400 1 19 400 1 20 400 1 21
400 1 22 400 1 23 400 1 24 400
2 1 400 2 2 400 2 3 400 2
4 400 2 5 400 2 6 400 2 7
400 2 8 400 2 9 400 2 10 400
2 11 400 2 12 400 2 13 400 2
14 400 2 15 400 2 16 400 2 17
400 2 18 400 2 19 400 2 20 400
2 21 400 2 22 400 2 23 400 2
24 400 3 1 400 3 2 400 3 3
400 3 4 400 3 5 400 3 6 400
3 7 400 3 8 400 3 9 400 3
10 400 3 11 400 3 12 400 3 13
400 3 14 400 3 15 400 3 16 400
3 17 400 3 18 400 3 19 400 3
20 400 3 21 400 3 22 400 3 23
400 3 24 400 4 1 400 4 2 400
4 3 400 4 4 400 4 5 400 4
6 400 4 7 400 4 8 400 4 9
400 4 10 400 4 11 400 4 12 400
4 13 400 4 14 400 4 15 400 4
16 400 4 17 400 4 18 400 4 19
400 4 20 400 4 21 400 4 22 400
4 23 400 4 24 400 5 1 400 5
2 400 5 3 400 5 4 400 5 5
400 5 6 400 5 7 400 5 8 400
5 9 400 5 10 400 5 11 400 5
12 400 5 13 400 5 14 400 5 15
400 5 16 400 5 17 400 5 18 400
5 19 400 5 20 400 5 21 400 5
22 400 5 23 400 5 24 400 6 1
400 6 2 400 6 3 400 6 4 400
6 5 400 6 6 400 6 7 400 6
8 400 6 9 400 6 10 400 6 11
400 6 12 400 6 13 400 6 14 400
6 15 400 6 16 400 6 17 400 6
18 400 6 19 400 6 20 400 6 21
400 6 22 400 6 23 400 6 24 400
7 1 400 7 2 400 7 3 400 7
4 400 7 5 400 7 6 400 7 7
400 7 8 400 7 9 400 7 10 400
7 11 400 7 12 400 7 13 400 7
14 400 7 15 400 7 16 400 7 17
400 7 18 400 7 19 400 7 20 400
7 21 400 7 22 400 7 23 400 7
24 400 8 1 400 8 2 400 8 3
400 8 4 400 8 5 400 8 6 400
8 7 400 8 8 400 8 9 400 8
10 400 8 11 400 8 12 400 8 13
400 8 14 400 8 15 400 8 16 400
8 17 400 8 18 400 8 19 400 8
20 400 8 21 400 8 22 400 8 23
400 8 24 400 9 1 400 9 2 400
9 3 400 9 4 400 9 5 400 9
6 400 9 7 400 9 8 400 9 9
400 9 10 400 9 11 400 9 12 400
9 13 400 9 14 400 9 15 400 9
16 400 9 17 400 9 18 400 9 19
400 9 20 400 9 21 400 9 22 400
9 23 400 9 24 400 10 1 400 10
2 400 10 3 400 10 4 400 10 5
400 10 6 400 10 7 400 10 8 400
10 9 400 10 10 400 10 11 400 10
12 400 10 13 400 10 14 400 10 15
400 10 16 400 10 17 400 10 18 400
10 19 400 10 20 400 10 21 400 10
22 400 10 23 400 10 24 400 11 1
400 11 2 400 11 3 400 11 4 400
11 5 400 11 6 400 11 7 400 11
8 400 11 9 400 11 10 400 11 11
400 11 12 400 11 13 400 11 14 400
11 15 400 11 16 400 11 17 400 11
18 400 11 19 400 11 20 400 11 21
400 11 22 400 11 23 400 11 24 400
12 1 400 12 2 400 12 3 400 12
4 400 12 5 400 12 6 400 12 7
400 12 8 400 12 9 400 12 10 400
12 11 400 12 12 400 12 13 400 12
14 400 12 15 400 12 16 400 12 17
400 12 18 400 12 19 400 12 20 400
12 21 400 12 22 400 12 23 400 12
24 400 13 1 400 13 2 400 13 3
400 13 4 400 13 5 400 13 6 400
13 7 400 13 8 400 13 9 400 13
10 400 13 11 400 13 12 400 13 13
400 13 14 400 13 15 400 13 16 400
13 17 400 13 18 400 13 19 400 13
20 400 13 21 400 13 22 400 13 23
400 13 24 400 14 1 400 14 2 400
14 3 400 14 4 400 14 5 400 14
6 400 14 7 400 14 8 400 14 9
400 14 10 400 14 11 400 14 12 400
14 13 400 14 14 400 14 15 400 14
16 400 14 17 400 14 18 400 14 19
400 14 20 400 14 21 400 14 22 400
14 23 400 14 24 400 15 1 400 15
2 400 15 3 400 15 4 400 15 5
400 15 6 400 15 7 400 15 8 400
15 9 400 15 10 400 15 11 400 15
12 400 15 13 400 15 14 400 15 15
400 15 16 400 15 17 400 15 18 400
15 19 400 15 20 400 15 21 400 15
22 400 15 23 400 15 24 400 16 1
400 16 2 400 16 3 400 16 4 400
16 5 400 16 6 400 16 7 400 16
8 400 16 9 400 16 10 400 16 11
400 16 12 400 16 13 400 16 14 400
16 15 400 16 16 400 16 17 400 16
18 400 16 19 400 16 20 400 16 21
400 16 22 400 16 23 400 16 24 400
17 1 400 17 2 400 17 3 400 17
4 400 17 5 400 17 6 400 17 7
400 17 8 400 17 9 400 17 10 400
17 11 400 17 12 400 17 13 400 17
14 400 17 15 400 17 16 400 17 17
400 17 18 400 17 19 400 17 20 400
17 21 400 17 22 400 17 23 400 17
24 400 18 1 400 18 2 400 18 3
400 18 4 400 18 5 400 18 6 400
18 7 400 18 8 400 18 9 400 18
10 400 18 11 400 18 12 400 18 13
400 18 14 400 18 15 400 18 16 400
18 17 400 18 18 400 18 19 400 18
20 400 18 21 400 18 22 400 18 23
400 18 24 400 19 1 400 19 2 400
19 3 400 19 4 400 19 5 400 19
[...]
<PointData>
<DataArray type="Float64" Name="press" NumberOfComponents="1" format="ascii">
100 92.7625 60 103.636 100 55.975 60 66.8489 109.493 108.833
108.304 107.635 107.036 106.508 106.044 105.633 105.264 104.93 104.622 104.338
104.072 103.823 103.586 103.362 103.147 102.941 102.743 102.552 102.367 102.188
102.013 101.843 101.676 101.513 101.354 101.198 101.044 100.893 100.744 100.597
100.452 100.309 100.168 100.028 99.8901 99.753 99.6172 99.4824 99.3486 99.2157
99.0836 98.9522 98.8215 98.6913 98.5617 98.4324 98.3035 98.1749 98.0466 97.9184
97.7903 97.6622 97.5342 97.4062 97.278 97.1498 97.0213 96.8927 96.7639 96.6349
96.5056 96.376 96.2462 96.1162 95.9859 95.8554 95.7248 95.5941 95.4634 95.3327
95.2022 95.072 94.9422 94.8129 94.6844 94.5569 94.4306 94.3058 94.1828 94.0619
93.9434 93.8279 93.7156 93.607 93.5027 93.4031 93.3088 93.2202 93.138 93.0627
92.9948 92.9347 92.8831 92.8402 92.8064 92.7821 92.7674 92.7567 92.7392 92.71
92.6687 92.6151 92.5487 92.4688 92.3749 92.2659 92.1407 91.9979 91.8356 91.6517
91.4431 91.2062 90.9356 90.6241 90.2609 89.8281 89.2947 88.5943 87.5964 85.7797
82.9358 82.9388 85.7916 87.6233 88.642 89.3693 89.9356 90.4072 90.8153 91.1777
91.5052 91.8053 92.083 92.3423 92.5862 92.8169 93.0363 93.246 93.4471 93.6408
93.8279 94.0092 94.1852 94.3565 94.5236 94.6868 94.8466 95.0033 95.1571 95.3083
95.4571 95.6037 95.7484 95.8911 96.0322 96.1718 96.3099 96.4468 96.5824 96.717
96.8507 96.9834 97.1154 97.2467 97.3773 97.5074 97.6371 97.7663 97.8953 98.024
98.1525 98.2809 98.4092 98.5375 98.6658 98.7943 98.9229 99.0516 99.1806 99.3098
99.4393 99.5691 99.6993 99.8298 99.9606 100.092 100.223 100.355 100.487 100.619
100.752 100.885 101.017 101.15 101.282 101.414 101.545 101.676 101.806 101.934
102.061 102.187 102.31 102.431 102.549 102.663 102.774 102.88 102.982 103.078
103.169 103.253 103.33 103.399 103.46 103.513 103.557 103.591 103.616 103.631
103.642 103.66 103.69 103.733 103.788 103.856 103.938 104.035 104.147 104.275
104.422 104.588 104.777 104.991 105.234 105.511 105.828 106.193 106.617 107.112
107.684 108.331 108.845 109.496 76.8821 73.9825 72.1195 71.0785 70.3337 69.7531
69.2693 68.8506 68.4788 68.1429 67.8352 67.5505 67.2848 67.035 66.7988 66.5742
66.3597 66.154 65.956 65.7648 65.5797 65.4001 65.2254 65.055 64.8887 64.7259
64.5665 64.41 64.2563 64.1052 63.9563 63.8096 63.6649 63.5219 63.3806 63.2409
63.1026 62.9655 62.8297 62.6949 62.5611 62.4282 62.2961 62.1647 62.034 61.9038
61.7742 61.6449 61.516 61.3874 61.2591 61.1309 61.0028 60.8747 60.7467 60.6187
60.4905 60.3623 60.2338 60.1052 59.9764 59.8474 59.7181 59.5885 59.4587 59.3287
59.1984 59.0679 58.9373 58.8066 58.6759 58.5452 58.4147 58.2845 58.1547 58.0254
57.8969 57.7694 57.6431 57.5183 57.3953 57.2744 57.1559 57.0404 56.9281 56.8195
56.7152 56.6156 56.5213 56.4327 56.3505 56.2752 56.2073 56.1472 56.0956 56.0527
56.0189 55.9946 55.9799 55.9692 55.9517 55.9225 55.8812 55.8276 55.7612 55.6813
55.5874 55.4784 55.3532 55.2104 55.0482 54.8643 54.6559 54.4194 54.15 53.8415
53.486 53.0733 52.5922 52.0376 51.4121 50.9294 50.3246 50.3276 50.9413 51.4389
52.0854 52.6668 53.1808 53.6323 54.0327 54.3921 54.7185 55.0181 55.2956 55.5549
55.7987 56.0294 56.2488 56.4585 56.6596 56.8533 57.0404 57.2217 57.3977 57.569
57.7361 57.8993 58.0591 58.2158 58.3696 58.5208 58.6696 58.8162 58.9609 59.1036
59.2447 59.3843 59.5224 59.6593 59.7949 59.9295 60.0632 60.1959 60.3279 60.4592
60.5898 60.7199 60.8496 60.9788 61.1078 61.2365 61.365 61.4934 61.6217 61.75
61.8783 62.0068 62.1354 62.2641 62.3931 62.5223 62.6518 62.7816 62.9118 63.0423
63.1731 63.3043 63.4358 63.5676 63.6996 63.832 63.9644 64.097 64.2296 64.3621
64.4944 64.6263 64.7577 64.8884 65.0182 65.1467 65.2738 65.3992 65.5224 65.6431
65.761 65.8755 65.9863 66.0928 66.1944 66.2907 66.3812 66.4651 66.5421 66.6115
66.6728 66.7257 66.7695 66.804 66.8289 66.8439 66.8548 66.8728 66.9028 66.9452
67.0003 67.0685 67.1505 67.247 67.359 67.4876 67.6343 67.801 67.9899 68.2041
68.4476 68.7255 69.0453 69.4183 69.8625 70.4097 71.1271 72.1469 73.9947 76.8852
100 100 100 100 85.405 78.0475 70.69 63.3325 60 60
60 60 96.2789 88.9214 81.5639 74.2064 108.626 108.811 108.21 107.611
107.058 106.578 106.163 105.804 105.492 105.218 104.978 104.766 104.578 104.413
104.267 104.139 104.028 103.932 103.85 103.782 103.727 103.685 103.655 103.637
108.802 108.389 107.928 107.4 106.905 106.464 106.075 105.735 105.435 105.171
104.938 104.731 104.548 104.386 104.243 104.117 104.007 103.913 103.832 103.765
103.711 103.669 103.64 103.622 108.186 107.913 107.52 107.095 106.676 106.288
105.938 105.624 105.345 105.095 104.873 104.675 104.499 104.342 104.203 104.081
103.974 103.882 103.803 103.737 103.684 103.644 103.615 103.597 107.565 107.363
107.074 106.741 106.399 106.069 105.762 105.481 105.225 104.994 104.786 104.599
104.432 104.282 104.149 104.031 103.928 103.839 103.763 103.699 103.647 103.608
103.579 103.563 106.985 106.842 106.628 106.371 106.097 105.823 105.559 105.311
105.082 104.872 104.68 104.506 104.348 104.207 104.081 103.969 103.87 103.785
103.711 103.65 103.6 103.562 103.535 103.519 106.471 106.366 106.206 106.008
105.789 105.563 105.339 105.124 104.921 104.732 104.557 104.397 104.251 104.119
104 103.894 103.801 103.72 103.65 103.591 103.544 103.507 103.481 103.466
106.017 105.938 105.816 105.661 105.486 105.3 105.111 104.926 104.748 104.58
104.422 104.276 104.142 104.019 103.909 103.81 103.722 103.645 103.579 103.524
103.479 103.444 103.419 103.404 105.612 105.552 105.457 105.334 105.193 105.039
104.881 104.722 104.566 104.417 104.276 104.144 104.022 103.91 103.807 103.715
103.633 103.561 103.5 103.447 103.405 103.372 103.348 103.334 105.248 105.201
105.125 105.027 104.912 104.784 104.651 104.515 104.38 104.249 104.123 104.005
103.894 103.791 103.697 103.613 103.537 103.47 103.412 103.363 103.323 103.292
103.27 103.257 104.917 104.879 104.818 104.738 104.643 104.537 104.424 104.308
104.191 104.076 103.965 103.859 103.759 103.666 103.58 103.503 103.433 103.371
103.317 103.272 103.235 103.206 103.185 103.173 104.612 104.581 104.532 104.466
104.388 104.299 104.203 104.103 104.002 103.901 103.803 103.709 103.619 103.535
103.457 103.386 103.322 103.265 103.216 103.174 103.14 103.113 103.094 103.082
104.329 104.304 104.263 104.209 104.143 104.068 103.987 103.901 103.813 103.725
103.639 103.555 103.475 103.4 103.329 103.265 103.206 103.154 103.109 103.07
103.039 103.014 102.996 102.985 104.065 104.044 104.01 103.965 103.91 103.846
103.776 103.703 103.627 103.55 103.474 103.399 103.328 103.26 103.197 103.139
103.086 103.038 102.997 102.961 102.932 102.91 102.893 102.884 103.817 103.799
103.771 103.732 103.685 103.631 103.572 103.508 103.442 103.375 103.308 103.242
103.179 103.119 103.062 103.009 102.961 102.918 102.88 102.848 102.822 102.801
102.786 102.777 103.581 103.567 103.543 103.51 103.47 103.424 103.373 103.318
103.26 103.202 103.143 103.085 103.029 102.975 102.924 102.877 102.833 102.794
102.76 102.731 102.707 102.688 102.674 102.666 103.358 103.345 103.325 103.297
103.263 103.223 103.179 103.131 103.081 103.03 102.979 102.927 102.877 102.829
102.784 102.742 102.703 102.668 102.637 102.61 102.588 102.571 102.558 102.551
103.144 103.133 103.116 103.092 103.063 103.028 102.99 102.949 102.905 102.861
102.815 102.77 102.726 102.683 102.643 102.605 102.57 102.538 102.51 102.486
102.467 102.451 102.44 102.433 102.938 102.929 102.914 102.894 102.869 102.839
102.806 102.77 102.732 102.693 102.653 102.613 102.574 102.536 102.5 102.466
102.435 102.407 102.382 102.36 102.342 102.328 102.318 102.312 102.741 102.733
102.72 102.703 102.681 102.655 102.627 102.595 102.562 102.528 102.493 102.458
102.423 102.389 102.357 102.327 102.299 102.274 102.251 102.232 102.216 102.203
102.194 102.189 102.55 102.543 102.532 102.517 102.498 102.476 102.451 102.424
102.395 102.365 102.334 102.303 102.272 102.243 102.214 102.187 102.162 102.14
102.119 102.102 102.088 102.076 102.068 102.063 102.365 102.359 102.35 102.337
102.32 102.301 102.279 102.256 102.23 102.204 102.177 102.149 102.122 102.096
102.071 102.047 102.025 102.004 101.986 101.971 101.958 101.948 101.94 101.936
102.186 102.181 102.173 102.161 102.147 102.13 102.111 102.09 102.068 102.045
102.021 101.997 101.973 101.95 101.927 101.906 101.886 101.868 101.852 101.838
101.827 101.818 101.811 101.807 102.011 102.007 102 101.99 101.977 101.963
101.946 101.928 101.908 101.888 101.867 101.846 101.825 101.804 101.784 101.765
101.748 101.732 101.718 101.705 101.695 101.687 101.681 101.677 101.841 101.837
101.831 101.822 101.812 101.799 101.784 101.768 101.751 101.733 101.715 101.696
101.678 101.659 101.642 101.625 101.609 101.595 101.582 101.571 101.562 101.555
101.55 101.546 101.675 101.672 101.666 101.659 101.649 101.638 101.625 101.611
101.596 101.581 101.564 101.548 101.531 101.515 101.5 101.485 101.471 101.458
101.447 101.437 101.429 101.422 101.418 101.415 101.512 101.509 101.505 101.498
101.49 101.48 101.469 101.457 101.443 101.43 101.415 101.401 101.386 101.372
101.358 101.345 101.333 101.321 101.311 101.303 101.295 101.289 101.285 101.283
101.353 101.351 101.346 101.341 101.333 101.325 101.315 101.304 101.293 101.28
101.268 101.255 101.242 101.229 101.217 101.206 101.195 101.185 101.176 101.168
101.162 101.156 101.153 101.15 101.197 101.195 101.191 101.186 101.179 101.172
101.163 101.154 101.144 101.133 101.122 101.11 101.099 101.088 101.077 101.067
101.057 101.048 101.04 101.033 101.028 101.023 101.02 101.018 101.043 101.041
101.038 101.034 101.028 101.021 101.014 101.005 100.996 100.987 100.977 100.967
100.957 100.947 100.938 100.929 100.92 100.912 100.905 100.899 100.894 100.89
100.887 100.885 100.892 100.89 100.888 100.884 100.879 100.873 100.866 100.859
100.851 100.843 100.834 100.825 100.816 100.808 100.799 100.791 100.784 100.777
100.77 100.765 100.76 100.757 100.754 100.752 100.743 100.742 100.739 100.736
100.732 100.726 100.721 100.714 100.707 100.7 100.692 100.684 100.677 100.669
100.661 100.654 100.647 100.641 100.636 100.631 100.627 100.624 100.621 100.62
100.597 100.595 100.593 100.59 100.586 100.582 100.577 100.571 100.565 100.558
100.552 100.545 100.538 100.531 100.524 100.518 100.512 100.507 100.502 100.497
100.494 100.491 100.489 100.488 100.452 100.451 100.449 100.446 100.443 100.439
100.434 100.429 100.424 100.418 100.412 100.406 100.4 100.394 100.388 100.382
100.377 100.372 100.368 100.364 100.361 100.358 100.357 100.355 100.309 100.308
100.306 100.304 100.301 100.297 100.293 100.289 100.284 100.279 100.274 100.268
100.263 100.258 100.253 100.248 100.243 100.239 100.235 100.231 100.228 100.226
100.225 100.224 100.168 100.167 100.165 100.163 100.161 100.158 100.154 100.15
100.146 100.141 100.137 100.132 100.127 100.122 100.118 100.113 100.109 100.105
100.102 100.099 100.096 100.094 100.093 100.092 100.028 100.027 100.026 100.024
100.022 100.019 100.016 100.012 100.009 100.005 100.001 99.9963 99.992 99.9878
99.9837 99.9798 99.9761 99.9727 99.9696 99.967 99.9647 99.9629 99.9617 99.9609
99.8898 99.8891 99.8879 99.8863 99.8842 99.8818 99.879 99.8759 99.8725 99.869
99.8653 99.8616 99.8578 99.854 99.8504 99.8469 99.8436 99.8406 99.8378 99.8354
99.8334 99.8319 99.8307 99.83 99.7528 99.7522 99.7511 99.7496 99.7478 99.7456
99.7432 99.7404 99.7374 99.7343 99.731 99.7276 99.7243 99.7209 99.7177 99.7146
99.7116 99.7089 99.7065 99.7044 99.7026 99.7012 99.7001 99.6995 99.617 99.6164
99.6154 99.6141 99.6125 99.6106 99.6084 99.6059 99.6032 99.6004 99.5975 99.5945
99.5915 99.5885 99.5856 99.5828 99.5802 99.5778 99.5756 99.5737 99.5721 99.5708
99.5699 99.5693 99.4822 99.4817 99.4808 99.4797 99.4782 99.4765 99.4745 99.4723
99.4699 99.4674 99.4648 99.4621 99.4594 99.4567 99.4541 99.4516 99.4492 99.4471
99.4451 99.4434 99.442 99.4408 99.44 99.4395 99.3484 99.348 99.3472 99.3462
99.3448 99.3433 99.3415 99.3395 99.3374 99.3351 99.3327 99.3303 99.3279 99.3255
99.3231 99.3209 99.3187 99.3168 99.315 99.3135 99.3122 99.3112 99.3104 99.31
99.2155 99.2151 99.2144 99.2135 99.2123 99.2109 99.2093 99.2075 99.2055 99.2035
99.2013 99.1992 99.197 99.1948 99.1926 99.1906 99.1887 99.1869 99.1853 99.1839
99.1827 99.1818 99.1811 99.1807 99.0835 99.0831 99.0825 99.0816 99.0805 99.0792
99.0778 99.0761 99.0744 99.0725 99.0705 99.0685 99.0665 99.0645 99.0626 99.0607
99.059 99.0574 99.0559 99.0546 99.0536 99.0527 99.0521 99.0517 98.9521 98.9518
98.9512 98.9504 98.9494 98.9482 98.9469 98.9454 98.9437 98.942 98.9402 98.9384
98.9366 98.9347 98.933 98.9312 98.9296 98.9282 98.9268 98.9256 98.9247 98.9239
98.9233 98.923 98.8214 98.8211 98.8205 98.8198 98.8189 98.8178 98.8165 98.8151
98.8136 98.8121 98.8104 98.8087 98.807 98.8053 98.8037 98.8021 98.8006 98.7992
98.798 98.7969 98.796 98.7952 98.7947 98.7944 98.6912 98.6909 98.6904 98.6897
98.6889 98.6879 98.6867 98.6854 98.684 98.6825 98.6809 98.6794 98.6778 98.6762
98.6746 98.6731 98.6717 98.6704 98.6693 98.6683 98.6674 98.6667 98.6662 98.6659
98.5616 98.5613 98.5608 98.5602 98.5593 98.5584 98.5573 98.556 98.5547 98.5533
98.5518 98.5503 98.5488 98.5473 98.5458 98.5444 98.5431 98.5419 98.5408 98.5398
98.539 98.5383 98.5379 98.5376 98.4323 98.4321 98.4316 98.431 98.4302 98.4293
98.4282 98.427 98.4257 98.4244 98.423 98.4215 98.4201 98.4186 98.4172 98.4159
98.4146 98.4134 98.4123 98.4114 98.4106 98.41 98.4096 98.4093 98.3034 98.3032
98.3027 98.3021 98.3014 98.3005 98.2994 98.2983 98.297 98.2957 98.2943 98.2929
98.2915 98.2901 98.2887 98.2874 98.2861 98.285 98.2839 98.283 98.2823 98.2817
98.2812 98.281 98.1748 98.1746 98.1741 98.1735 98.1728 98.1719 98.1709 98.1697
98.1685 98.1672 98.1658 98.1644 98.163 98.1616 98.1602 98.1589 98.1577 98.1566
98.1555 98.1546 98.1539 98.1533 98.1528 98.1526 98.0465 98.0462 98.0458 98.0452
98.0444 98.0435 98.0425 98.0413 98.0401 98.0388 98.0374 98.036 98.0346 98.0332
98.0318 98.0305 98.0292 98.0281 98.027 98.0261 98.0254 98.0248 98.0243 98.0241
97.9183 97.918 97.9176 97.9169 97.9162 97.9152 97.9142 97.913 97.9117 97.9104
97.909 97.9076 97.9061 97.9047 97.9033 97.9019 97.9007 97.8995 97.8984 97.8975
97.8967 97.8961 97.8957 97.8954 97.7902 97.7899 97.7894 97.7888 97.788 97.787
97.7859 97.7847 97.7834 97.782 97.7806 97.7791 97.7776 97.7761 97.7746 97.7732
97.7719 97.7707 97.7696 97.7686 97.7678 97.7672 97.7667 97.7664 97.6621 97.6619
97.6614 97.6607 97.6598 97.6588 97.6577 97.6564 97.655 97.6536 97.652 97.6505
97.6489 97.6473 97.6458 97.6443 97.6429 97.6417 97.6405 97.6395 97.6386 97.638
97.6375 97.6372 97.5341 97.5338 97.5333 97.5326 97.5317 97.5306 97.5294 97.528
97.5266 97.525 97.5234 97.5217 97.52 97.5183 97.5167 97.5151 97.5137 97.5123
97.5111 97.51 97.5091 97.5084 97.5078 97.5075 97.406 97.4057 97.4052 97.4044
97.4034 97.4023 97.401 97.3995 97.3979 97.3962 97.3945 97.3927 97.3909 97.3891
97.3873 97.3856 97.384 97.3826 97.3812 97.3801 97.3791 97.3783 97.3778 97.3774
97.2779 97.2775 97.2769 97.2761 97.275 97.2738 97.2724 97.2708 97.2691 97.2672
97.2653 97.2634 97.2614 97.2595 97.2575 97.2557 97.254 97.2524 97.2509 97.2497
97.2486 97.2478 97.2472 97.2468 97.1496 97.1492 97.1486 97.1476 97.1465 97.1451
97.1436 97.1418 97.1399 97.1379 97.1359 97.1337 97.1316 97.1294 97.1273 97.1253
97.1234 97.1217 97.1201 97.1187 97.1175 97.1166 97.1159 97.1155 97.0212 97.0207
97.02 97.019 97.0177 97.0162 97.0145 97.0126 97.0105 97.0083 97.006 97.0037
97.0013 96.9989 96.9966 96.9944 96.9923 96.9903 96.9886 96.9871 96.9858 96.9848
96.984 96.9836 96.8926 96.8921 96.8913 96.8902 96.8888 96.8871 96.8852 96.8831
96.8807 96.8783 96.8758 96.8731 96.8705 96.8679 96.8653 96.8628 96.8605 96.8584
96.8564 96.8547 96.8533 96.8522 96.8513 96.8508 96.7637 96.7632 96.7623 96.761
96.7595 96.7576 96.7555 96.7531 96.7506 96.7479 96.745 96.7421 96.7392 96.7362
96.7334 96.7306 96.728 96.7256 96.7235 96.7216 96.72 96.7187 96.7178 96.7172
96.6346 96.634 96.633 96.6317 96.6299 96.6278 96.6255 96.6228 96.62 96.6169
96.6138 96.6105 96.6072 96.6039 96.6007 96.5977 96.5947 96.5921 96.5896 96.5875
96.5857 96.5843 96.5833 96.5827 96.5053 96.5046 96.5035 96.502 96.5 96.4977
96.495 96.4921 96.4889 96.4855 96.4819 96.4783 96.4746 96.4709 96.4673 96.4639
96.4606 96.4576 96.4549 96.4525 96.4505 96.4489 96.4477 96.447 96.3757 96.375
96.3737 96.372 96.3698 96.3672 96.3642 96.3609 96.3573 96.3535 96.3495 96.3454
96.3412 96.3371 96.3331 96.3292 96.3255 96.3221 96.319 96.3164 96.3141 96.3123
96.311 96.3102 96.2459 96.2451 96.2436 96.2417 96.2392 96.2363 96.233 96.2292
96.2252 96.2209 96.2164 96.2118 96.2071 96.2024 96.1979 96.1935 96.1894 96.1855
96.1821 96.179 96.1765 96.1745 96.173 96.1721 96.1158 96.1149 96.1133 96.1111
96.1083 96.105 96.1013 96.0971 96.0925 96.0877 96.0826 96.0774 96.0721 96.0669
96.0617 96.0568 96.0521 96.0478 96.0439 96.0404 96.0376 96.0353 96.0336 96.0326
95.9855 95.9845 95.9827 95.9802 95.9771 95.9734 95.9691 95.9644 95.9593 95.9538
95.9481 95.9422 95.9362 95.9303 95.9245 95.9189 95.9136 95.9087 95.9043 95.9004
95.8972 95.8946 95.8927 95.8915 95.855 95.8538 95.8518 95.849 95.8455 95.8413
95.8366 95.8312 95.8254 95.8193 95.8128 95.8062 95.7994 95.7927 95.7862 95.7799
95.7739 95.7683 95.7633 95.7589 95.7552 95.7522 95.7501 95.7488 95.7244 95.723
95.7207 95.7176 95.7137 95.709 95.7036 95.6976 95.691 95.684 95.6768 95.6693
95.6617 95.6541 95.6466 95.6395 95.6327 95.6264 95.6207 95.6157 95.6115 95.6082
95.6057 95.6042 95.5936 95.5921 95.5895 95.586 95.5816 95.5763 95.5702 95.5634
95.556 95.5481 95.5399 95.5314 95.5228 95.5142 95.5058 95.4977 95.49 95.4829
95.4764 95.4707 95.466 95.4621 95.4594 95.4577 95.4628 95.4611 95.4582 95.4543
95.4492 95.4433 95.4364 95.4288 95.4204 95.4116 95.4022 95.3927 95.3829 95.3732
95.3637 95.3544 95.3457 95.3376 95.3303 95.3238 95.3184 95.314 95.3109 95.309
95.3321 95.3301 95.3269 95.3224 95.3168 95.3101 95.3023 95.2937 95.2843 95.2743
95.2638 95.2529 95.2419 95.2309 95.2201 95.2096 95.1997 95.1905 95.1821 95.1748
95.1686 95.1636 95.16 95.1578 95.2015 95.1993 95.1957 95.1906 95.1843 95.1767
95.168 95.1583 95.1477 95.1364 95.1245 95.1122 95.0997 95.0872 95.075 95.0631
95.0518 95.0413 95.0318 95.0234 95.0164 95.0107 95.0066 95.0041 95.0711 95.0687
95.0646 95.059 95.0518 95.0433 95.0335 95.0226 95.0106 94.9978 94.9844 94.9705
94.9564 94.9422 94.9283 94.9148 94.902 94.89 94.8792 94.8696 94.8616 94.8551
94.8504 94.8476 94.9412 94.9385 94.9339 94.9275 94.9195 94.91 94.8989 94.8866
94.8731 94.8587 94.8435 94.8278 94.8118 94.7957 94.7799 94.7646 94.75 94.7364
94.724 94.7131 94.7039 94.6965 94.6912 94.6879 94.8119 94.8088 94.8036 94.7965
94.7875 94.7768 94.7644 94.7505 94.7353 94.719 94.7019 94.6841 94.666 94.6478
94.6298 94.6124 94.5958 94.5802 94.5661 94.5537 94.5431 94.5347 94.5285 94.5248
94.6833 94.6798 94.674 94.6661 94.656 94.6439 94.63 94.6144 94.5973 94.5789
94.5596 94.5395 94.519 94.4983 94.4779 94.4581 94.4391 94.4214 94.4053 94.391
94.3789 94.3693 94.3622 94.3579 94.5556 94.5517 94.5453 94.5364 94.5251 94.5116
94.4959 94.4784 94.4592 94.4385 94.4167 94.394 94.3707 94.3473 94.3241 94.3015
94.2799 94.2596 94.2412 94.2248 94.211 94.1999 94.1918 94.1868 94.4292 94.4248
94.4177 94.4077 94.3951 94.3799 94.3624 94.3427 94.3211 94.2979 94.2732 94.2476
94.2213 94.1947 94.1684 94.1426 94.1179 94.0948 94.0736 94.0548 94.0389 94.0261
94.0168 94.0111 94.3042 94.2994 94.2914 94.2803 94.2662 94.2493 94.2297 94.2076
94.1834 94.1572 94.1294 94.1005 94.0707 94.0406 94.0106 93.9812 93.953 93.9265
93.9022 93.8806 93.8623 93.8475 93.8367 93.8301 94.181 94.1756 94.1667 94.1544
94.1387 94.1198 94.0979 94.0733 94.0461 94.0167 93.9854 93.9527 93.9191 93.8849
93.8508 93.8173 93.785 93.7546 93.7267 93.7018 93.6806 93.6635 93.651 93.6434
94.0599 94.0539 94.0441 94.0304 94.0129 93.9919 93.9675 93.94 93.9095 93.8766
93.8414 93.8046 93.7665 93.7277 93.6889 93.6506 93.6137 93.5788 93.5466 93.5179
93.4933 93.4735 93.459 93.4501 93.9412 93.9347 93.9237 93.9085 93.8892 93.8659
93.8387 93.808 93.774 93.7371 93.6977 93.6561 93.6131 93.5691 93.5249 93.4812
93.4389 93.3987 93.3616 93.3283 93.2998 93.2768 93.2598 93.2495 93.8254 93.8182
93.8061 93.7894 93.768 93.7421 93.712 93.6779 93.64 93.5987 93.5545 93.5077