<VTKFile type="UnstructuredGrid" version="1.0">
<UnstructuredGrid>
<FieldData>
<DataArray type="Float64" Name="TIME" NumberOfTuples="1" format="ascii" RangeMin="0" RangeMax="0">
0
</DataArray>
</FieldData>
<Piece NumberOfPoints="2025" NumberOfCells="1536">
<Points>
<DataArray type="Float64" NumberOfComponents="3" format="ascii">
500 500 1500 437.5 500 1500 375 500 1500 312.5
500 1500 250 500 1500 187.5 500 1500 125 500
1500 62.5 500 1500 0 500 1500 500 437.5 1500
437.5 437.5 1500 375 437.5 1500 312.5 437.5 1500 250
437.5 1500 187.5 437.5 1500 125 437.5 1500 62.5 437.5
1500 0 437.5 1500 500 375 1500 437.5 375 1500
375 375 1500 312.5 375 1500 250 375 1500 187.5
375 1500 125 375 1500 62.5 375 1500 0 375
1500 500 312.5 1500 437.5 312.5 1500 375 312.5 1500
312.5 312.5 1500 250 312.5 1500 187.5 312.5 1500 125
312.5 1500 62.5 312.5 1500 0 312.5 1500 500 250
1500 437.5 250 1500 375 250 1500 312.5 250 1500
250 250 1500 187.5 250 1500 125 250 1500 62.5
250 1500 0 250 1500 500 187.5 1500 437.5 187.5
1500 375 187.5 1500 312.5 187.5 1500 250 187.5 1500
187.5 187.5 1500 125 187.5 1500 62.5 187.5 1500 0
187.5 1500 500 125 1500 437.5 125 1500 375 125
1500 312.5 125 1500 250 125 1500 187.5 125 1500
125 125 1500 62.5 125 1500 0 125 1500 500
62.5 1500 437.5 62.5 1500 375 62.5 1500 312.5 62.5
1500 250 62.5 1500 187.5 62.5 1500 125 62.5 1500
62.5 62.5 1500 0 62.5 1500 500 0 1500 437.5
0 1500 375 0 1500 312.5 0 1500 250 0
1500 187.5 0 1500 125 0 1500 62.5 0 1500
0 0 1500 500 500 1437.5 437.5 500 1437.5 375
500 1437.5 312.5 500 1437.5 250 500 1437.5 187.5 500
1437.5 125 500 1437.5 62.5 500 1437.5 0 500 1437.5
500 437.5 1437.5 437.5 437.5 1437.5 375 437.5 1437.5 312.5
437.5 1437.5 250 437.5 1437.5 187.5 437.5 1437.5 125 437.5
1437.5 62.5 437.5 1437.5 0 437.5 1437.5 500 375 1437.5
437.5 375 1437.5 375 375 1437.5 312.5 375 1437.5 250
375 1437.5 187.5 375 1437.5 125 375 1437.5 62.5 375
1437.5 0 375 1437.5 500 312.5 1437.5 437.5 312.5 1437.5
375 312.5 1437.5 312.5 312.5 1437.5 250 312.5 1437.5 187.5
312.5 1437.5 125 312.5 1437.5 62.5 312.5 1437.5 0 312.5
1437.5 500 250 1437.5 437.5 250 1437.5 375 250 1437.5
312.5 250 1437.5 250 250 1437.5 187.5 250 1437.5 125
250 1437.5 62.5 250 1437.5 0 250 1437.5 500 187.5
1437.5 437.5 187.5 1437.5 375 187.5 1437.5 312.5 187.5 1437.5
250 187.5 1437.5 187.5 187.5 1437.5 125 187.5 1437.5 62.5
187.5 1437.5 0 187.5 1437.5 500 125 1437.5 437.5 125
1437.5 375 125 1437.5 312.5 125 1437.5 250 125 1437.5
187.5 125 1437.5 125 125 1437.5 62.5 125 1437.5 0
125 1437.5 500 62.5 1437.5 437.5 62.5 1437.5 375 62.5
1437.5 312.5 62.5 1437.5 250 62.5 1437.5 187.5 62.5 1437.5
125 62.5 1437.5 62.5 62.5 1437.5 0 62.5 1437.5 500
0 1437.5 437.5 0 1437.5 375 0 1437.5 312.5 0
1437.5 250 0 1437.5 187.5 0 1437.5 125 0 1437.5
62.5 0 1437.5 0 0 1437.5 500 500 1375 437.5
500 1375 375 500 1375 312.5 500 1375 250 500
1375 187.5 500 1375 125 500 1375 62.5 500 1375
0 500 1375 500 437.5 1375 437.5 437.5 1375 375
437.5 1375 312.5 437.5 1375 250 437.5 1375 187.5 437.5
1375 125 437.5 1375 62.5 437.5 1375 0 437.5 1375
500 375 1375 437.5 375 1375 375 375 1375 312.5
375 1375 250 375 1375 187.5 375 1375 125 375
1375 62.5 375 1375 0 375 1375 500 312.5 1375
437.5 312.5 1375 375 312.5 1375 312.5 312.5 1375 250
312.5 1375 187.5 312.5 1375 125 312.5 1375 62.5 312.5
1375 0 312.5 1375 500 250 1375 437.5 250 1375
375 250 1375 312.5 250 1375 250 250 1375 187.5
250 1375 125 250 1375 62.5 250 1375 0 250
1375 500 187.5 1375 437.5 187.5 1375 375 187.5 1375
312.5 187.5 1375 250 187.5 1375 187.5 187.5 1375 125
187.5 1375 62.5 187.5 1375 0 187.5 1375 500 125
1375 437.5 125 1375 375 125 1375 312.5 125 1375
250 125 1375 187.5 125 1375 125 125 1375 62.5
125 1375 0 125 1375 500 62.5 1375 437.5 62.5
1375 375 62.5 1375 312.5 62.5 1375 250 62.5 1375
187.5 62.5 1375 125 62.5 1375 62.5 62.5 1375 0
62.5 1375 500 0 1375 437.5 0 1375 375 0
1375 312.5 0 1375 250 0 1375 187.5 0 1375
125 0 1375 62.5 0 1375 0 0 1375 500
500 1312.5 437.5 500 1312.5 375 500 1312.5 312.5 500
1312.5 250 500 1312.5 187.5 500 1312.5 125 500 1312.5
62.5 500 1312.5 0 500 1312.5 500 437.5 1312.5 437.5
437.5 1312.5 375 437.5 1312.5 312.5 437.5 1312.5 250 437.5
1312.5 187.5 437.5 1312.5 125 437.5 1312.5 62.5 437.5 1312.5
0 437.5 1312.5 500 375 1312.5 437.5 375 1312.5 375
375 1312.5 312.5 375 1312.5 250 375 1312.5 187.5 375
1312.5 125 375 1312.5 62.5 375 1312.5 0 375 1312.5
500 312.5 1312.5 437.5 312.5 1312.5 375 312.5 1312.5 312.5
312.5 1312.5 250 312.5 1312.5 187.5 312.5 1312.5 125 312.5
1312.5 62.5 312.5 1312.5 0 312.5 1312.5 500 250 1312.5
437.5 250 1312.5 375 250 1312.5 312.5 250 1312.5 250
250 1312.5 187.5 250 1312.5 125 250 1312.5 62.5 250
1312.5 0 250 1312.5 500 187.5 1312.5 437.5 187.5 1312.5
375 187.5 1312.5 312.5 187.5 1312.5 250 187.5 1312.5 187.5
187.5 1312.5 125 187.5 1312.5 62.5 187.5 1312.5 0 187.5
1312.5 500 125 1312.5 437.5 125 1312.5 375 125 1312.5
312.5 125 1312.5 250 125 1312.5 187.5 125 1312.5 125
125 1312.5 62.5 125 1312.5 0 125 1312.5 500 62.5
1312.5 437.5 62.5 1312.5 375 62.5 1312.5 312.5 62.5 1312.5
250 62.5 1312.5 187.5 62.5 1312.5 125 62.5 1312.5 62.5
62.5 1312.5 0 62.5 1312.5 500 0 1312.5 437.5 0
1312.5 375 0 1312.5 312.5 0 1312.5 250 0 1312.5
187.5 0 1312.5 125 0 1312.5 62.5 0 1312.5 0
0 1312.5 500 500 1250 437.5 500 1250 375 500
1250 312.5 500 1250 250 500 1250 187.5 500 1250
125 500 1250 62.5 500 1250 0 500 1250 500
437.5 1250 437.5 437.5 1250 375 437.5 1250 312.5 437.5
1250 250 437.5 1250 187.5 437.5 1250 125 437.5 1250
62.5 437.5 1250 0 437.5 1250 500 375 1250 437.5
375 1250 375 375 1250 312.5 375 1250 250 375
1250 187.5 375 1250 125 375 1250 62.5 375 1250
0 375 1250 500 312.5 1250 437.5 312.5 1250 375
312.5 1250 312.5 312.5 1250 250 312.5 1250 187.5 312.5
1250 125 312.5 1250 62.5 312.5 1250 0 312.5 1250
500 250 1250 437.5 250 1250 375 250 1250 312.5
250 1250 250 250 1250 187.5 250 1250 125 250
1250 62.5 250 1250 0 250 1250 500 187.5 1250
437.5 187.5 1250 375 187.5 1250 312.5 187.5 1250 250
187.5 1250 187.5 187.5 1250 125 187.5 1250 62.5 187.5
1250 0 187.5 1250 500 125 1250 437.5 125 1250
375 125 1250 312.5 125 1250 250 125 1250 187.5
125 1250 125 125 1250 62.5 125 1250 0 125
1250 500 62.5 1250 437.5 62.5 1250 375 62.5 1250
312.5 62.5 1250 250 62.5 1250 187.5 62.5 1250 125
62.5 1250 62.5 62.5 1250 0 62.5 1250 500 0
1250 437.5 0 1250 375 0 1250 312.5 0 1250
250 0 1250 187.5 0 1250 125 0 1250 62.5
0 1250 0 0 1250 500 500 1187.5 437.5 500
1187.5 375 500 1187.5 312.5 500 1187.5 250 500 1187.5
187.5 500 1187.5 125 500 1187.5 62.5 500 1187.5 0
500 1187.5 500 437.5 1187.5 437.5 437.5 1187.5 375 437.5
1187.5 312.5 437.5 1187.5 250 437.5 1187.5 187.5 437.5 1187.5
125 437.5 1187.5 62.5 437.5 1187.5 0 437.5 1187.5 500
375 1187.5 437.5 375 1187.5 375 375 1187.5 312.5 375
1187.5 250 375 1187.5 187.5 375 1187.5 125 375 1187.5
62.5 375 1187.5 0 375 1187.5 500 312.5 1187.5 437.5
312.5 1187.5 375 312.5 1187.5 312.5 312.5 1187.5 250 312.5
1187.5 187.5 312.5 1187.5 125 312.5 1187.5 62.5 312.5 1187.5
0 312.5 1187.5 500 250 1187.5 437.5 250 1187.5 375
250 1187.5 312.5 250 1187.5 250 250 1187.5 187.5 250
1187.5 125 250 1187.5 62.5 250 1187.5 0 250 1187.5
500 187.5 1187.5 437.5 187.5 1187.5 375 187.5 1187.5 312.5
187.5 1187.5 250 187.5 1187.5 187.5 187.5 1187.5 125 187.5
1187.5 62.5 187.5 1187.5 0 187.5 1187.5 500 125 1187.5
437.5 125 1187.5 375 125 1187.5 312.5 125 1187.5 250
125 1187.5 187.5 125 1187.5 125 125 1187.5 62.5 125
1187.5 0 125 1187.5 500 62.5 1187.5 437.5 62.5 1187.5
375 62.5 1187.5 312.5 62.5 1187.5 250 62.5 1187.5 187.5
62.5 1187.5 125 62.5 1187.5 62.5 62.5 1187.5 0 62.5
1187.5 500 0 1187.5 437.5 0 1187.5 375 0 1187.5
312.5 0 1187.5 250 0 1187.5 187.5 0 1187.5 125
0 1187.5 62.5 0 1187.5 0 0 1187.5 500 500
1125 437.5 500 1125 375 500 1125 312.5 500 1125
250 500 1125 187.5 500 1125 125 500 1125 62.5
500 1125 0 500 1125 500 437.5 1125 437.5 437.5
1125 375 437.5 1125 312.5 437.5 1125 250 437.5 1125
187.5 437.5 1125 125 437.5 1125 62.5 437.5 1125 0
437.5 1125 500 375 1125 437.5 375 1125 375 375
1125 312.5 375 1125 250 375 1125 187.5 375 1125
125 375 1125 62.5 375 1125 0 375 1125 500
312.5 1125 437.5 312.5 1125 375 312.5 1125 312.5 312.5
1125 250 312.5 1125 187.5 312.5 1125 125 312.5 1125
62.5 312.5 1125 0 312.5 1125 500 250 1125 437.5
250 1125 375 250 1125 312.5 250 1125 250 250
1125 187.5 250 1125 125 250 1125 62.5 250 1125
0 250 1125 500 187.5 1125 437.5 187.5 1125 375
187.5 1125 312.5 187.5 1125 250 187.5 1125 187.5 187.5
1125 125 187.5 1125 62.5 187.5 1125 0 187.5 1125
500 125 1125 437.5 125 1125 375 125 1125 312.5
125 1125 250 125 1125 187.5 125 1125 125 125
1125 62.5 125 1125 0 125 1125 500 62.5 1125
437.5 62.5 1125 375 62.5 1125 312.5 62.5 1125 250
62.5 1125 187.5 62.5 1125 125 62.5 1125 62.5 62.5
1125 0 62.5 1125 500 0 1125 437.5 0 1125
375 0 1125 312.5 0 1125 250 0 1125 187.5
0 1125 125 0 1125 62.5 0 1125 0 0
1125 500 500 1062.5 437.5 500 1062.5 375 500 1062.5
312.5 500 1062.5 250 500 1062.5 187.5 500 1062.5 125
500 1062.5 62.5 500 1062.5 0 500 1062.5 500 437.5
1062.5 437.5 437.5 1062.5 375 437.5 1062.5 312.5 437.5 1062.5
250 437.5 1062.5 187.5 437.5 1062.5 125 437.5 1062.5 62.5
437.5 1062.5 0 437.5 1062.5 500 375 1062.5 437.5 375
1062.5 375 375 1062.5 312.5 375 1062.5 250 375 1062.5
187.5 375 1062.5 125 375 1062.5 62.5 375 1062.5 0
375 1062.5 500 312.5 1062.5 437.5 312.5 1062.5 375 312.5
1062.5 312.5 312.5 1062.5 250 312.5 1062.5 187.5 312.5 1062.5
125 312.5 1062.5 62.5 312.5 1062.5 0 312.5 1062.5 500
250 1062.5 437.5 250 1062.5 375 250 1062.5 312.5 250
1062.5 250 250 1062.5 187.5 250 1062.5 125 250 1062.5
62.5 250 1062.5 0 250 1062.5 500 187.5 1062.5 437.5
187.5 1062.5 375 187.5 1062.5 312.5 187.5 1062.5 250 187.5
1062.5 187.5 187.5 1062.5 125 187.5 1062.5 62.5 187.5 1062.5
0 187.5 1062.5 500 125 1062.5 437.5 125 1062.5 375
125 1062.5 312.5 125 1062.5 250 125 1062.5 187.5 125
1062.5 125 125 1062.5 62.5 125 1062.5 0 125 1062.5
500 62.5 1062.5 437.5 62.5 1062.5 375 62.5 1062.5 312.5
62.5 1062.5 250 62.5 1062.5 187.5 62.5 1062.5 125 62.5
[...]
<PointData>
<DataArray type="Float64" Name="ux" NumberOfComponents="1" format="ascii">
3.91989e-017 1.64666e-012 2.04948e-012 4.97723e-013 2.5295e-019 -4.97723e-013 -2.04948e-012 -1.64666e-012 -3.91989e-017 7.83977e-017
2.47241e-012 1.50084e-012 6.11421e-013 2.0006e-019 -6.11421e-013 -1.50084e-012 -2.4724e-012 -7.83977e-017 7.83977e-017 3.46646e-013
8.09529e-013 4.22743e-013 1.83498e-019 -4.22742e-013 -8.09528e-013 -3.46646e-013 -7.83977e-017 7.83977e-017 2.1317e-013 2.65474e-013
2.22484e-013 1.22334e-019 -2.22484e-013 -2.65474e-013 -2.1317e-013 -7.83977e-017 7.83977e-017 9.74923e-014 1.87774e-013 1.33141e-013
5.994e-020 -1.33141e-013 -1.87774e-013 -9.74923e-014 -7.83977e-017 7.83977e-017 2.1317e-013 2.65474e-013 2.22484e-013 1.6168e-019
-2.22484e-013 -2.65474e-013 -2.1317e-013 -7.83977e-017 7.83977e-017 3.46646e-013 8.09529e-013 4.22743e-013 1.10068e-019 -4.22743e-013
-8.09529e-013 -3.46646e-013 -7.83977e-017 7.83977e-017 2.47241e-012 1.50084e-012 6.11421e-013 1.62731e-019 -6.11421e-013 -1.50084e-012
-2.47241e-012 -7.83977e-017 3.91989e-017 1.64666e-012 2.04948e-012 4.97723e-013 8.84701e-020 -4.97723e-013 -2.04948e-012 -1.64666e-012
-3.91989e-017 7.83977e-017 -1.31106e-011 -1.51602e-012 -4.92725e-013 1.62447e-019 4.92726e-013 1.51602e-012 1.31106e-011 -7.83977e-017
1.56795e-016 -1.29642e-012 -1.5744e-012 -3.37844e-013 8.86439e-020 3.37844e-013 1.5744e-012 1.29642e-012 -1.56795e-016 1.56795e-016
-7.25169e-013 -2.87021e-013 -2.09067e-013 9.3637e-020 2.09067e-013 2.87021e-013 7.25169e-013 -1.56795e-016 1.56795e-016 -8.5072e-014
-1.76363e-013 -5.5265e-014 2.69852e-020 5.52651e-014 1.76363e-013 8.5072e-014 -1.56795e-016 1.56795e-016 -7.70599e-014 -6.46936e-014
-5.51353e-014 3.89813e-020 5.51352e-014 6.46934e-014 7.70599e-014 -1.56795e-016 1.56795e-016 -8.50719e-014 -1.76363e-013 -5.5265e-014
-4.82603e-020 5.5265e-014 1.76363e-013 8.50719e-014 -1.56795e-016 1.56795e-016 -7.25169e-013 -2.87021e-013 -2.09067e-013 6.95581e-020
2.09067e-013 2.87021e-013 7.25169e-013 -1.56795e-016 1.56795e-016 -1.29642e-012 -1.5744e-012 -3.37844e-013 2.65587e-020 3.37844e-013
1.5744e-012 1.29642e-012 -1.56795e-016 7.83977e-017 -1.31106e-011 -1.51602e-012 -4.92725e-013 -1.2428e-020 4.92725e-013 1.51602e-012
1.31106e-011 -7.83977e-017 7.83977e-017 -1.99351e-012 -2.66325e-012 -8.14856e-013 -1.23244e-019 8.14856e-013 2.66325e-012 1.99351e-012
-7.83977e-017 1.56795e-016 -1.89032e-012 -1.49172e-012 -7.23283e-013 -3.17479e-020 7.23283e-013 1.49172e-012 1.89032e-012 -1.56795e-016
1.56795e-016 -5.49205e-013 -7.12735e-013 -3.92785e-013 4.42379e-021 3.92785e-013 7.12735e-013 5.49205e-013 -1.56795e-016 1.56795e-016
-2.97192e-013 -3.19729e-013 -2.04822e-013 -1.18377e-019 2.04822e-013 3.19729e-013 2.97192e-013 -1.56795e-016 1.56795e-016 -1.59264e-013
-2.32718e-013 -1.47263e-013 -6.51043e-020 1.47263e-013 2.32718e-013 1.59264e-013 -1.56795e-016 1.56795e-016 -2.97192e-013 -3.19729e-013
-2.04822e-013 -1.03324e-019 2.04822e-013 3.19729e-013 2.97192e-013 -1.56795e-016 1.56795e-016 -5.49205e-013 -7.12736e-013 -3.92786e-013
-1.10666e-019 3.92785e-013 7.12735e-013 5.49205e-013 -1.56795e-016 1.56795e-016 -1.89032e-012 -1.49172e-012 -7.23283e-013 -1.33652e-019
7.23283e-013 1.49172e-012 1.89032e-012 -1.56795e-016 7.83977e-017 -1.99351e-012 -2.66325e-012 -8.14856e-013 -5.05186e-020 8.14856e-013
2.66325e-012 1.99351e-012 -7.83977e-017 7.83977e-017 -8.99891e-013 -1.03548e-012 -6.97375e-013 -6.81378e-020 6.97375e-013 1.03548e-012
8.99891e-013 -7.83977e-017 1.56795e-016 -7.16811e-013 -9.17016e-013 -5.3936e-013 -2.09365e-019 5.3936e-013 9.17016e-013 7.1681e-013
-1.56795e-016 1.56795e-016 -4.67711e-013 -5.44214e-013 -3.43258e-013 -2.0497e-019 3.43258e-013 5.44214e-013 4.67711e-013 -1.56795e-016
1.56795e-016 -2.2945e-013 -3.13841e-013 -2.05019e-013 -1.30363e-019 2.05019e-013 3.13841e-013 2.2945e-013 -1.56795e-016 1.56795e-016
-1.86243e-013 -2.39079e-013 -1.61141e-013 -1.27705e-019 1.61141e-013 2.39079e-013 1.86243e-013 -1.56795e-016 1.56795e-016 -2.2945e-013
-3.13841e-013 -2.05019e-013 -1.3874e-019 2.05019e-013 3.13841e-013 2.2945e-013 -1.56795e-016 1.56795e-016 -4.67711e-013 -5.44214e-013
-3.43258e-013 -1.3182e-019 3.43258e-013 5.44214e-013 4.67711e-013 -1.56795e-016 1.56795e-016 -7.16811e-013 -9.17016e-013 -5.3936e-013
-1.40057e-019 5.3936e-013 9.17016e-013 7.1681e-013 -1.56795e-016 7.83977e-017 -8.99891e-013 -1.03548e-012 -6.97375e-013 -1.97526e-019
6.97375e-013 1.03548e-012 8.99891e-013 -7.83977e-017 7.83977e-017 -3.6823e-013 -5.06669e-013 -3.3467e-013 -1.59619e-019 3.3467e-013
5.06668e-013 3.6823e-013 -7.83977e-017 1.56795e-016 -3.33991e-013 -4.44872e-013 -3.02835e-013 -2.53481e-019 3.02835e-013 4.44871e-013
3.33991e-013 -1.56795e-016 1.56795e-016 -2.43641e-013 -3.29858e-013 -2.18611e-013 -2.41786e-019 2.1861e-013 3.29858e-013 2.4364e-013
-1.56795e-016 1.56795e-016 -1.68087e-013 -2.23045e-013 -1.51549e-013 -1.84838e-019 1.51549e-013 2.23044e-013 1.68087e-013 -1.56795e-016
1.56795e-016 -1.33644e-013 -1.85545e-013 -1.26774e-013 -1.65661e-019 1.26774e-013 1.85545e-013 1.33644e-013 -1.56795e-016 1.56795e-016
-1.68087e-013 -2.23045e-013 -1.5155e-013 -1.70038e-019 1.51549e-013 2.23044e-013 1.68087e-013 -1.56795e-016 1.56795e-016 -2.43641e-013
-3.29858e-013 -2.18611e-013 -1.48214e-019 2.1861e-013 3.29858e-013 2.4364e-013 -1.56795e-016 1.56795e-016 -3.33991e-013 -4.44872e-013
-3.02835e-013 -1.11916e-019 3.02835e-013 4.44871e-013 3.33991e-013 -1.56795e-016 7.83977e-017 -3.6823e-013 -5.06669e-013 -3.3467e-013
-1.61204e-019 3.3467e-013 5.06668e-013 3.6823e-013 -7.83977e-017 7.83977e-017 -1.67738e-013 -2.31779e-013 -1.62063e-013 -1.43047e-019
1.62063e-013 2.31778e-013 1.67738e-013 -7.83977e-017 1.56795e-016 -1.54852e-013 -2.15565e-013 -1.49183e-013 -1.53429e-019 1.49183e-013
2.15565e-013 1.54851e-013 -1.56795e-016 1.56795e-016 -1.26419e-013 -1.74685e-013 -1.21388e-013 -1.3482e-019 1.21387e-013 1.74685e-013
1.26419e-013 -1.56795e-016 1.56795e-016 -9.82404e-014 -1.36596e-013 -9.43038e-014 -2.14185e-019 9.43034e-014 1.36596e-013 9.82402e-014
-1.56795e-016 1.56795e-016 -8.76188e-014 -1.20739e-013 -8.38348e-014 -2.67869e-019 8.38344e-014 1.20739e-013 8.76185e-014 -1.56795e-016
1.56795e-016 -9.82404e-014 -1.36596e-013 -9.43038e-014 -1.48319e-019 9.43035e-014 1.36596e-013 9.82402e-014 -1.56795e-016 1.56795e-016
-1.26419e-013 -1.74685e-013 -1.21388e-013 -1.7323e-019 1.21387e-013 1.74685e-013 1.26419e-013 -1.56795e-016 1.56795e-016 -1.54852e-013
-2.15565e-013 -1.49183e-013 -1.61673e-019 1.49183e-013 2.15565e-013 1.54851e-013 -1.56795e-016 7.83977e-017 -1.67738e-013 -2.31779e-013
-1.62063e-013 -2.10229e-019 1.62063e-013 2.31778e-013 1.67738e-013 -7.83977e-017 7.83977e-017 -7.67653e-014 -1.08018e-013 -7.57196e-014
-2.59466e-019 7.57189e-014 1.08018e-013 7.67651e-014 -7.83977e-017 1.56795e-016 -7.2898e-014 -1.02315e-013 -7.19018e-014 -2.21697e-019
7.19012e-014 1.02314e-013 7.28977e-014 -1.56795e-016 1.56795e-016 -6.33948e-014 -8.90796e-014 -6.24451e-014 -2.80507e-019 6.24447e-014
8.90791e-014 6.33944e-014 -1.56795e-016 1.56795e-016 -5.41467e-014 -7.58448e-014 -5.31988e-014 -2.88848e-019 5.31983e-014 7.58443e-014
5.41465e-014 -1.56795e-016 1.56795e-016 -5.02403e-014 -7.05173e-014 -4.93255e-014 -2.53163e-019 4.93249e-014 7.05169e-014 5.02401e-014
-1.56795e-016 1.56795e-016 -5.41467e-014 -7.58447e-014 -5.31987e-014 -2.34694e-019 5.31983e-014 7.58443e-014 5.41465e-014 -1.56795e-016
1.56795e-016 -6.33947e-014 -8.90795e-014 -6.24451e-014 -2.28422e-019 6.24447e-014 8.90792e-014 6.33945e-014 -1.56795e-016 1.56795e-016
-7.28978e-014 -1.02314e-013 -7.19017e-014 -2.4173e-019 7.19013e-014 1.02314e-013 7.28977e-014 -1.56795e-016 7.83977e-017 -7.67653e-014
-1.08018e-013 -7.57194e-014 -2.25821e-019 7.57191e-014 1.08018e-013 7.67651e-014 -7.83977e-017 7.83977e-017 -3.55904e-014 -5.02178e-014
-3.54366e-014 -3.40233e-019 3.54359e-014 5.02173e-014 3.55902e-014 -7.83977e-017 1.56795e-016 -3.43238e-014 -4.84715e-014 -3.41717e-014
-3.42312e-019 3.41711e-014 4.84709e-014 3.43235e-014 -1.56795e-016 1.56795e-016 -3.13053e-014 -4.41939e-014 -3.11638e-014 -3.09491e-019
3.11632e-014 4.41934e-014 3.1305e-014 -1.56795e-016 1.56795e-016 -2.82882e-014 -3.99452e-014 -2.81389e-014 -3.21602e-019 2.81383e-014
3.99447e-014 2.8288e-014 -1.56795e-016 1.56795e-016 -2.70578e-014 -3.81687e-014 -2.68981e-014 -2.55258e-019 2.68975e-014 3.81682e-014
2.70576e-014 -1.56795e-016 1.56795e-016 -2.82883e-014 -3.99452e-014 -2.81389e-014 -3.45489e-019 2.81383e-014 3.99447e-014 2.8288e-014
-1.56795e-016 1.56795e-016 -3.13052e-014 -4.41938e-014 -3.11638e-014 -2.81278e-019 3.11633e-014 4.41935e-014 3.13051e-014 -1.56795e-016
1.56795e-016 -3.43238e-014 -4.84713e-014 -3.41715e-014 -2.23839e-019 3.41712e-014 4.84711e-014 3.43236e-014 -1.56795e-016 7.83977e-017
-3.55904e-014 -5.02177e-014 -3.54365e-014 -1.64093e-019 3.54361e-014 5.02174e-014 3.55903e-014 -7.83977e-017 7.83977e-017 -1.65502e-014
-2.34384e-014 -1.65624e-014 -4.19588e-019 1.65618e-014 2.34379e-014 1.65501e-014 -7.83977e-017 1.56795e-016 -1.61608e-014 -2.2891e-014
-1.61789e-014 -3.68136e-019 1.61783e-014 2.28905e-014 1.61606e-014 -1.56795e-016 1.56795e-016 -1.52145e-014 -2.15733e-014 -1.5245e-014
-3.41691e-019 1.52444e-014 2.15729e-014 1.52143e-014 -1.56795e-016 1.56795e-016 -1.42837e-014 -2.02501e-014 -1.4312e-014 -3.40473e-019
1.43114e-014 2.02497e-014 1.42835e-014 -1.56795e-016 1.56795e-016 -1.38952e-014 -1.97053e-014 -1.3923e-014 -3.78293e-019 1.39223e-014
1.97049e-014 1.3895e-014 -1.56795e-016 1.56795e-016 -1.42836e-014 -2.025e-014 -1.43119e-014 -3.71652e-019 1.43113e-014 2.02497e-014
1.42835e-014 -1.56795e-016 1.56795e-016 -1.52145e-014 -2.15732e-014 -1.52449e-014 -2.71378e-019 1.52444e-014 2.15729e-014 1.52143e-014
-1.56795e-016 1.56795e-016 -1.61608e-014 -2.28908e-014 -1.61787e-014 -2.16496e-019 1.61783e-014 2.28906e-014 1.61606e-014 -1.56795e-016
7.83977e-017 -1.65503e-014 -2.34384e-014 -1.65622e-014 -1.60921e-019 1.65619e-014 2.3438e-014 1.65501e-014 -7.83977e-017 7.83977e-017
-7.69904e-015 -1.09413e-014 -7.74581e-015 -3.21149e-019 7.74516e-015 1.09408e-014 7.69882e-015 -7.83977e-017 1.56795e-016 -7.57795e-015
-1.07801e-014 -7.63088e-015 -3.53163e-019 7.63035e-015 1.07798e-014 7.57781e-015 -1.56795e-016 1.56795e-016 -7.28645e-015 -1.03857e-014
-7.35395e-015 -3.5952e-019 7.35343e-015 1.03854e-014 7.28632e-015 -1.56795e-016 1.56795e-016 -7.00811e-015 -9.9917e-015 -7.07599e-015
-2.43168e-019 7.07554e-015 9.99135e-015 7.00801e-015 -1.56795e-016 1.56795e-016 -6.89339e-015 -9.82856e-015 -6.96101e-015 -3.34868e-019
6.96049e-015 9.82826e-015 6.89329e-015 -1.56795e-016 1.56795e-016 -7.00811e-015 -9.99164e-015 -7.07602e-015 -2.32668e-019 7.0755e-015
9.99133e-015 7.00796e-015 -1.56795e-016 1.56795e-016 -7.28645e-015 -1.03857e-014 -7.35394e-015 -2.66511e-019 7.35346e-015 1.03853e-014
7.28623e-015 -1.56795e-016 1.56795e-016 -7.57794e-015 -1.078e-014 -7.6307e-015 -1.8356e-019 7.63032e-015 1.07797e-014 7.57781e-015
-1.56795e-016 7.83977e-017 -7.69891e-015 -1.0941e-014 -7.74563e-015 -1.8148e-019 7.74528e-015 1.09409e-014 7.6988e-015 -7.83977e-017
7.83977e-017 -3.55719e-015 -5.08955e-015 -3.6111e-015 -2.72291e-019 3.61057e-015 5.08914e-015 3.557e-015 -7.83977e-017 1.56795e-016
-3.51811e-015 -5.0436e-015 -3.57858e-015 -2.70382e-019 3.57807e-015 5.0432e-015 3.51795e-015 -1.56795e-016 1.56795e-016 -3.42391e-015
-4.92924e-015 -3.49934e-015 -2.10816e-019 3.49894e-015 4.92887e-015 3.42371e-015 -1.56795e-016 1.56795e-016 -3.34377e-015 -4.815e-015
-3.41996e-015 -2.23411e-019 3.41961e-015 4.81471e-015 3.34353e-015 -1.56795e-016 1.56795e-016 -3.31077e-015 -4.76856e-015 -3.38695e-015
-1.56773e-019 3.38654e-015 4.76825e-015 3.31065e-015 -1.56795e-016 1.56795e-016 -3.34378e-015 -4.81501e-015 -3.42003e-015 -2.39169e-019
3.41964e-015 4.8146e-015 3.34348e-015 -1.56795e-016 1.56795e-016 -3.4239e-015 -4.92919e-015 -3.49937e-015 -1.75203e-019 3.49895e-015
4.92883e-015 3.42369e-015 -1.56795e-016 1.56795e-016 -3.518e-015 -5.04344e-015 -3.57847e-015 -2.0924e-019 3.57805e-015 5.04309e-015
3.51789e-015 -1.56795e-016 7.83977e-017 -3.55711e-015 -5.08942e-015 -3.61103e-015 -2.13394e-019 3.61057e-015 5.0891e-015 3.55687e-015
-7.83977e-017 7.83977e-017 -1.6098e-015 -2.33661e-015 -1.66537e-015 -2.32687e-019 1.66499e-015 2.33626e-015 1.60959e-015 -7.83977e-017
1.56795e-016 -1.59437e-015 -2.32416e-015 -1.65637e-015 -1.81262e-019 1.65608e-015 2.32388e-015 1.59416e-015 -1.56795e-016 1.56795e-016
-1.55735e-015 -2.29065e-015 -1.63451e-015 -1.38012e-019 1.63421e-015 2.2904e-015 1.55712e-015 -1.56795e-016 1.56795e-016 -1.53442e-015
-2.25745e-015 -1.61239e-015 -1.16234e-019 1.61216e-015 2.25717e-015 1.53426e-015 -1.56795e-016 1.56795e-016 -1.52521e-015 -2.24461e-015
-1.60319e-015 -1.31914e-019 1.60294e-015 2.24436e-015 1.52502e-015 -1.56795e-016 1.56795e-016 -1.53438e-015 -2.25746e-015 -1.61243e-015
-1.86661e-019 1.61207e-015 2.25718e-015 1.53426e-015 -1.56795e-016 1.56795e-016 -1.5573e-015 -2.29067e-015 -1.63454e-015 -1.745e-019
1.63415e-015 2.29034e-015 1.55715e-015 -1.56795e-016 1.56795e-016 -1.59436e-015 -2.32415e-015 -1.65641e-015 -2.4509e-019 1.65598e-015
2.32383e-015 1.59411e-015 -1.56795e-016 7.83977e-017 -1.60976e-015 -2.33661e-015 -1.66537e-015 -2.59672e-019 1.66487e-015 2.33615e-015
1.60953e-015 -7.83977e-017 7.83977e-017 -6.89924e-016 -1.03597e-015 -7.45801e-016 -1.18687e-019 7.4561e-016 1.03571e-015 6.89726e-016
-7.83977e-017 1.56795e-016 -6.80939e-016 -1.0327e-015 -7.434e-016 -1.39828e-019 7.43142e-016 1.03257e-015 6.80874e-016 -1.56795e-016
1.56795e-016 -6.59653e-016 -1.02141e-015 -7.3712e-016 -3.2644e-020 7.37066e-016 1.02122e-015 6.59495e-016 -1.56795e-016 1.56795e-016
-6.52431e-016 -1.01043e-015 -7.30866e-016 -6.40678e-020 7.30729e-016 1.01036e-015 6.52328e-016 -1.56795e-016 1.56795e-016 -6.49685e-016
-1.00675e-015 -7.28195e-016 -1.25524e-019 7.28102e-016 1.00672e-015 6.49656e-016 -1.56795e-016 1.56795e-016 -6.524e-016 -1.01048e-015
-7.30983e-016 -1.69422e-019 7.30691e-016 1.01042e-015 6.52357e-016 -1.56795e-016 1.56795e-016 -6.59702e-016 -1.02141e-015 -7.37213e-016
-1.50665e-019 7.36991e-016 1.02126e-015 6.59517e-016 -1.56795e-016 1.56795e-016 -6.81102e-016 -1.03281e-015 -7.43383e-016 -1.06025e-019
7.43115e-016 1.03246e-015 6.80824e-016 -1.56795e-016 7.83977e-017 -6.89913e-016 -1.03604e-015 -7.45861e-016 -1.86443e-019 7.45497e-016
1.03566e-015 6.89667e-016 -7.83977e-017 7.83977e-017 -2.58677e-016 -4.26416e-016 -3.15015e-016 -8.23565e-021 3.15041e-016 4.26426e-016
2.58707e-016 -7.83977e-017 1.56795e-016 -2.51553e-016 -4.25689e-016 -3.14367e-016 -1.18693e-020 3.14274e-016 4.25701e-016 2.51627e-016
-1.56795e-016 1.56795e-016 -2.34515e-016 -4.20387e-016 -3.12256e-016 1.7576e-020 3.12232e-016 4.20334e-016 2.34527e-016 -1.56795e-016
1.56795e-016 -2.3132e-016 -4.15169e-016 -3.09898e-016 9.06979e-020 3.09938e-016 4.15143e-016 2.31431e-016 -1.56795e-016 1.56795e-016
-2.30305e-016 -4.13803e-016 -3.08869e-016 2.00797e-021 3.08844e-016 4.13801e-016 2.30465e-016 -1.56795e-016 1.56795e-016 -2.31317e-016
-4.15105e-016 -3.09887e-016 5.21742e-020 3.09928e-016 4.15187e-016 2.31479e-016 -1.56795e-016 1.56795e-016 -2.34531e-016 -4.20326e-016
-3.12229e-016 1.22505e-020 3.12262e-016 4.20338e-016 2.3456e-016 -1.56795e-016 1.56795e-016 -2.51642e-016 -4.25828e-016 -3.14341e-016
2.90069e-020 3.14307e-016 4.2573e-016 2.51545e-016 -1.56795e-016 7.83977e-017 -2.58782e-016 -4.2648e-016 -3.15083e-016 1.04739e-021
3.1508e-016 4.26382e-016 2.5867e-016 -7.83977e-017 7.83977e-017 -8.44027e-017 -1.82687e-016 -1.42943e-016 1.86246e-019 1.433e-016
1.83009e-016 8.46726e-017 -7.83977e-017 1.56795e-016 -7.9438e-017 -1.82993e-016 -1.42512e-016 1.50711e-019 1.42897e-016 1.83281e-016
7.95961e-017 -1.56795e-016 1.56795e-016 -6.36433e-017 -1.78744e-016 -1.41279e-016 1.7349e-019 1.41562e-016 1.78971e-016 6.38571e-017
-1.56795e-016 1.56795e-016 -6.13575e-017 -1.74711e-016 -1.39871e-016 1.82538e-019 1.40095e-016 1.74951e-016 6.16155e-017 -1.56795e-016
1.56795e-016 -6.06653e-017 -1.73917e-016 -1.39047e-016 2.54753e-019 1.39456e-016 1.74068e-016 6.08961e-017 -1.56795e-016 1.56795e-016
-6.139e-017 -1.74714e-016 -1.39783e-016 2.19602e-019 1.40169e-016 1.74946e-016 6.15993e-017 -1.56795e-016 1.56795e-016 -6.36589e-017
-1.78742e-016 -1.4131e-016 1.75531e-019 1.41577e-016 1.78923e-016 6.38047e-017 -1.56795e-016 1.56795e-016 -7.93961e-017 -1.82932e-016
-1.42589e-016 1.3014e-019 1.42924e-016 1.83211e-016 7.95366e-017 -1.56795e-016 7.83977e-017 -8.44695e-017 -1.82763e-016 -1.4301e-016
2.19378e-019 1.43264e-016 1.83001e-016 8.45953e-017 -7.83977e-017 7.83977e-017 -1.32116e-016 -2.46162e-016 -1.8678e-016 5.39248e-019
1.87698e-016 2.46864e-016 1.32482e-016 -7.83977e-017 1.56795e-016 -1.24783e-016 -2.455e-016 -1.86336e-016 4.65089e-019 1.87241e-016
2.46269e-016 1.25215e-016 -1.56795e-016 1.56795e-016 -1.07792e-016 -2.40707e-016 -1.85017e-016 4.58483e-019 1.86007e-016 2.4176e-016
1.08274e-016 -1.56795e-016 1.56795e-016 -1.05412e-016 -2.36702e-016 -1.83471e-016 4.42366e-019 1.84524e-016 2.37575e-016 1.05774e-016
-1.56795e-016 1.56795e-016 -1.04801e-016 -2.35949e-016 -1.82795e-016 6.24527e-019 1.83892e-016 2.36717e-016 1.05029e-016 -1.56795e-016
1.56795e-016 -1.05429e-016 -2.36771e-016 -1.83514e-016 5.97384e-019 1.84478e-016 2.37463e-016 1.05693e-016 -1.56795e-016 1.56795e-016
-1.07945e-016 -2.41e-016 -1.85094e-016 4.67503e-019 1.85988e-016 2.4163e-016 1.08154e-016 -1.56795e-016 1.56795e-016 -1.24818e-016
-2.4556e-016 -1.86558e-016 3.77248e-019 1.87207e-016 2.46251e-016 1.25278e-016 -1.56795e-016 7.83977e-017 -1.32036e-016 -2.46181e-016
-1.86933e-016 3.99828e-019 1.87687e-016 2.46872e-016 1.32521e-016 -7.83977e-017 7.83977e-017 -1.36634e-017 -7.69709e-017 -6.7027e-017
3.46836e-019 6.75908e-017 7.74073e-017 1.3992e-017 -7.83977e-017 1.56795e-016 -5.08452e-018 -7.59435e-017 -6.65283e-017 3.02508e-019
6.71336e-017 7.64206e-017 5.29555e-018 -1.56795e-016 1.56795e-016 1.21156e-017 -7.11885e-017 -6.50721e-017 3.41745e-019 6.5797e-017
7.16865e-017 -1.19373e-017 -1.56795e-016 1.56795e-016 1.46247e-017 -6.70502e-017 -6.35277e-017 4.13678e-019 6.42259e-017 6.75129e-017
-1.44087e-017 -1.56795e-016 1.56795e-016 1.53364e-017 -6.61246e-017 -6.27928e-017 4.04652e-019 6.36055e-017 6.67148e-017 -1.50927e-017
-1.56795e-016 1.56795e-016 1.46414e-017 -6.70238e-017 -6.35513e-017 4.38609e-019 6.43456e-017 6.75522e-017 -1.43244e-017 -1.56795e-016
1.56795e-016 1.2107e-017 -7.12319e-017 -6.50788e-017 3.59927e-019 6.58294e-017 7.18268e-017 -1.18381e-017 -1.56795e-016 1.56795e-016
-5.12182e-018 -7.5992e-017 -6.65143e-017 3.85639e-019 6.72058e-017 7.65317e-017 5.43526e-018 -1.56795e-016 7.83977e-017 -1.37615e-017
-7.69365e-017 -6.69822e-017 3.03866e-019 6.76968e-017 7.75576e-017 1.4053e-017 -7.83977e-017 7.83977e-017 4.32196e-017 1.01716e-018
-1.22087e-017 1.83023e-019 1.25271e-017 -7.73996e-019 -4.30688e-017 -7.83977e-017 1.56795e-016 5.02728e-017 1.72302e-018 -1.16517e-017
2.25177e-019 1.20598e-017 -1.41227e-018 -5.0058e-017 -1.56795e-016 1.56795e-016 6.71002e-017 6.46554e-018 -1.02375e-017 2.12082e-019
1.06564e-017 -6.13036e-018 -6.69248e-017 -1.56795e-016 1.56795e-016 6.95585e-017 1.06308e-017 -8.69234e-018 3.06247e-019 9.22569e-018
-1.02392e-017 -6.93943e-017 -1.56795e-016 1.56795e-016 7.03028e-017 1.14987e-017 -8.00727e-018 2.87576e-019 8.55778e-018 -1.10537e-017
-7.00775e-017 -1.56795e-016 1.56795e-016 6.95933e-017 1.05998e-017 -8.69376e-018 3.04643e-019 9.27803e-018 -1.0153e-017 -6.93495e-017
-1.56795e-016 1.56795e-016 6.71192e-017 6.54557e-018 -1.02143e-017 2.51456e-019 1.07669e-017 -5.99201e-018 -6.68599e-017 -1.56795e-016
1.56795e-016 5.02888e-017 1.76912e-018 -1.15885e-017 2.71079e-019 1.21565e-017 -1.28139e-018 -5.0032e-017 -1.56795e-016 7.83977e-017
4.32116e-017 1.06543e-018 -1.21803e-017 2.7958e-019 1.26682e-017 -6.58362e-019 -4.30279e-017 -7.83977e-017 7.83977e-017 6.8776e-017
3.70681e-017 1.30417e-017 1.9649e-019 -1.27449e-017 -3.6836e-017 -6.86842e-017 -7.83977e-017 1.56795e-016 7.57352e-017 3.74971e-017
1.35022e-017 1.74693e-019 -1.32417e-017 -3.73093e-017 -7.55944e-017 -1.56795e-016 1.56795e-016 9.22856e-017 4.20058e-017 1.48792e-017