<VTKFile type="UnstructuredGrid" version="1.0">
<UnstructuredGrid>
<FieldData>
<DataArray type="Float64" Name="TIME" NumberOfTuples="1" format="ascii" RangeMin="0" RangeMax="0">
0
</DataArray>
</FieldData>
<Piece NumberOfPoints="55" NumberOfCells="125">
<Points>
<DataArray type="Float64" NumberOfComponents="3" format="ascii">
500 500 1500 250.195 500 1500 0 500 1500 0
250.195 1500 333.333 250 1500 500 249.805 1500 500 0
1500 249.805 0 1500 0 0 1500 111.477 111.574 1246.22
138.896 333.373 1239.1 500 500 1200.29 0 500 1200.29 0
0 1200.29 500 249.966 1199.93 500 0 1198.83 250 250
1125 250.033 500 1076.25 0 250.033 1076.25 249.967 0 1075.72
500 500 900.586 0 500 900.586 0 0 900.586 500
249.995 899.906 500 0 899.414 250.002 500 755.759 0 250.002
755.759 249.998 0 755.18 250 250 750 500 500 600.586
0 500 600.586 0 0 600.586 500 250.005 600.088 500
0 599.414 249.98 500 455.954 0 249.98 455.954 250.02 0
455.361 213.889 249.99 343.918 500 500 301.172 0 500 301.172
0 0 301.172 500 250.034 300.057 500 0 299.707 249.885
500 176.444 0 249.885 176.444 250.115 0 176.101 500 500
0 249.805 500 0 0 500 0 500 250.195 0
333.333 250 0 0 249.805 0 500 0 0 250.195
0 0 0 0 0 </DataArray>
</Points>
<PointData>
<DataArray type="Float64" Name="ux" NumberOfComponents="1" format="ascii">
3.13676e-014 -1.13779e-009 -3.13187e-014 -1.51316e-013 1.18324e-009 9.41089e-014 6.28478e-014 3.8635e-010 -3.13676e-014 3.19871e-010
9.98779e-010 9.40995e-014 -1.06958e-013 -1.07044e-013 1.88328e-013 9.41751e-014 9.80468e-010 1.58657e-009 -2.18348e-013 1.60455e-009
9.40975e-014 -9.62258e-014 -9.62389e-014 1.88142e-013 9.40397e-014 6.63389e-010 -1.92486e-013 6.41893e-010 6.63138e-010 9.40395e-014
-9.40422e-014 -9.40353e-014 1.88143e-013 9.40985e-014 1.70924e-010 -1.83792e-013 1.5307e-010 7.93052e-011 9.41758e-014 -9.20644e-014
-9.20134e-014 1.88327e-013 9.40981e-014 6.78242e-011 -1.58358e-013 5.97441e-011 6.28467e-014 2.25459e-022 -4.99771e-014 9.41059e-014
1.88595e-021 -3.69044e-014 3.13673e-014 1.98802e-022 -4.99194e-014 </DataArray>
<DataArray type="Float64" Name="uy" NumberOfComponents="1" format="ascii">
3.13187e-014 1.51316e-013 3.13676e-014 1.37457e-009 2.43093e-010 1.04162e-009 -3.15204e-014 -1.5158e-013 -3.13187e-014 -1.64048e-010
3.50243e-011 1.06958e-013 1.07044e-013 -1.07013e-013 -2.37915e-010 -1.07222e-013 2.18941e-010 2.18348e-013 6.99813e-011 -2.18439e-013
9.62258e-014 9.62389e-014 -9.6231e-014 -3.29466e-010 -9.62139e-014 1.92486e-013 1.70894e-010 -1.92499e-013 2.55002e-010 9.40422e-014
9.40353e-014 -9.40436e-014 2.43586e-011 -9.40674e-014 1.83792e-013 5.54533e-011 -1.83773e-013 1.52522e-011 9.20644e-014 9.20134e-014
-9.20382e-014 1.17245e-011 -9.18647e-014 1.58358e-013 1.49511e-011 -1.58081e-013 4.99771e-014 3.69044e-014 4.99194e-014 6.81766e-023
2.11989e-022 3.13892e-022 -4.97304e-014 -3.68327e-014 -4.99412e-014 </DataArray>
<DataArray type="Float64" Name="uz" NumberOfComponents="1" format="ascii">
-0.148571 -0.148571 -0.148571 -0.148571 -0.148571 -0.148571 -0.148571 -0.148571 -0.148571 -0.123435
-0.12273 -0.118886 -0.118886 -0.118886 -0.11885 -0.118741 -0.111429 -0.1066 -0.1066 -0.106547
-0.0892009 -0.0892009 -0.0892009 -0.0891335 -0.0890848 -0.0748561 -0.0748561 -0.0747988 -0.0742857 -0.0594866
-0.0594866 -0.0594866 -0.0594373 -0.0593705 -0.0451611 -0.0451611 -0.0451024 -0.0340642 -0.0298304 -0.0298304
-0.0298304 -0.0297199 -0.0296853 -0.0174764 -0.0174764 -0.0174424 -1.01689e-013 -2.0341e-013 -6.10039e-014 -8.13388e-014
-3.66024e-013 -2.84685e-013 -1.01657e-013 -2.03283e-013 -6.10039e-014 </DataArray>
</PointData>
<Cells>
<DataArray type="Int64" Name="connectivity" format="ascii">
4 6 7 15 4 0 5 11 7 3
4 18 3 1 4 17 3 2 1 12
3 7 8 13 4 1 0 11 50 46
47 43 50 52 49 42 47 51 50 43
51 53 50 45 51 54 53 45 51 47
48 43 50 53 52 45 50 49 46 41
19 22 13 18 31 22 27 26 40 31
36 35 45 54 40 44 7 15 19 16
19 24 27 23 27 33 36 32 36 42
45 41 33 42 36 41 24 33 27 32
15 24 19 23 18 21 12 17 30 21
26 25 39 30 35 34 44 48 39 43
17 11 1 4 17 20 11 14 29 20
25 23 38 29 34 32 43 46 38 41
43 38 34 41 34 29 25 32 25 20
17 23 6 5 14 4 41 49 42 50
14 5 11 4 23 14 20 17 23 29
32 25 32 38 41 34 41 33 32 36
32 24 23 27 15 14 23 16 4 7
18 16 3 1 17 12 50 46 43 41
50 52 42 45 51 50 43 44 50 51
45 44 51 54 45 44 48 51 43 44
19 22 18 28 9 18 19 13 31 36
35 28 27 19 23 28 36 27 32 28
45 36 41 37 19 15 23 16 18 21
17 28 10 17 18 12 30 35 34 28
17 11 4 14 34 43 41 37 25 34
32 28 17 25 23 28 23 14 17 16
32 23 25 28 41 32 34 37 32 41
36 37 23 32 27 28 15 14 16 4
4 7 16 15 43 50 41 37 50 43
44 37 45 50 44 37 19 22 28 27
18 19 28 16 19 23 28 16 36 27
28 31 32 36 28 37 41 45 37 50
21 17 28 25 17 18 28 16 4 17
14 16 34 43 37 39 25 34 28 30
34 32 28 37 23 17 28 16 43 44
37 39 44 45 37 40 36 28 37 35
37 34 39 35 28 34 37 35 44 37
39 35 45 37 40 36 37 44 40 35
37 36 35 40 19 13 7 9 19 18
9 16 3 7 13 9 19 7 16 9
7 3 18 9 3 13 18 9 7 18
16 9 18 12 3 10 18 17 10 16
17 3 12 10 3 4 18 10 18 4
16 10 4 3 17 10 4 17 16 10
6 14 15 4 42 45 41 50 18 22
26 28 26 31 35 28 35 30 26 28
26 21 18 28 27 31 26 28 26 30
25 28 22 27 26 28 21 26 25 28
</DataArray>
<DataArray type="Int8" Name="types" format="ascii" RangeMin="10" RangeMax="10">
10 10 10 10 10 10 10 10 10 10
10 10 10 10 10 10 10 10 10 10
10 10 10 10 10 10 10 10 10 10
10 10 10 10 10 10 10 10 10 10
10 10 10 10 10 10 10 10 10 10
10 10 10 10 10 10 10 10 10 10
10 10 10 10 10 10 10 10 10 10
10 10 10 10 10 10 10 10 10 10
10 10 10 10 10 10 10 10 10 10
10 10 10 10 10 10 10 10 10 10
10 10 10 10 10 10 10 10 10 10
10 10 10 10 10 10 10 10 10 10
10 10 10 10 10 </DataArray>
<DataArray type="Int64" Name="offsets" format="ascii" RangeMin="4" RangeMax="500">
4 8 12 16 20 24 28 32 36 40
44 48 52 56 60 64 68 72 76 80
84 88 92 96 100 104 108 112 116 120
124 128 132 136 140 144 148 152 156 160
164 168 172 176 180 184 188 192 196 200
204 208 212 216 220 224 228 232 236 240
244 248 252 256 260 264 268 272 276 280
284 288 292 296 300 304 308 312 316 320
324 328 332 336 340 344 348 352 356 360
364 368 372 376 380 384 388 392 396 400
404 408 412 416 420 424 428 432 436 440
444 448 452 456 460 464 468 472 476 480
484 488 492 496 500 </DataArray>
</Cells>
</Piece>
</UnstructuredGrid>
</VTKFile>
