<VTKFile type="UnstructuredGrid" version="1.0">
<UnstructuredGrid>
<FieldData>
<DataArray type="Float64" Name="TIME" NumberOfTuples="1" format="ascii" RangeMin="6.5" RangeMax="6.5">
6.5
</DataArray>
</FieldData>
<Piece NumberOfPoints="15756" NumberOfCells="12500">
<Points>
<DataArray type="Float64" NumberOfComponents="3" format="ascii">
0 0 400 100 0 400 100 25 400 0
25 400 0 0 403.75 100 0 403.75 100 25
403.75 0 25 403.75 1 0 400 2 0 400
3 0 400 4 0 400 5 0 400 6
0 400 7 0 400 8 0 400 9 0
400 10 0 400 11 0 400 12 0 400
13 0 400 14 0 400 15 0 400 16
0 400 17 0 400 18 0 400 19 0
400 20 0 400 21 0 400 22 0 400
23 0 400 24 0 400 25 0 400 26
0 400 27 0 400 28 0 400 29 0
400 30 0 400 31 0 400 32 0 400
33 0 400 34 0 400 35 0 400 36
0 400 37 0 400 38 0 400 39 0
400 40 0 400 41 0 400 42 0 400
43 0 400 44 0 400 45 0 400 46
0 400 47 0 400 48 0 400 49 0
400 50 0 400 51 0 400 52 0 400
53 0 400 54 0 400 55 0 400 56
0 400 57 0 400 58 0 400 59 0
400 60 0 400 61 0 400 62 0 400
63 0 400 64 0 400 65 0 400 66
0 400 67 0 400 68 0 400 69 0
400 70 0 400 71 0 400 72 0 400
73 0 400 74 0 400 75 0 400 76
0 400 77 0 400 78 0 400 79 0
400 80 0 400 81 0 400 82 0 400
83 0 400 84 0 400 85 0 400 86
0 400 87 0 400 88 0 400 89 0
400 90 0 400 91 0 400 92 0 400
93 0 400 94 0 400 95 0 400 96
0 400 97 0 400 98 0 400 99 0
400 100 1 400 100 2 400 100 3 400
100 4 400 100 5 400 100 6 400 100
7 400 100 8 400 100 9 400 100 10
400 100 11 400 100 12 400 100 13 400
100 14 400 100 15 400 100 16 400 100
17 400 100 18 400 100 19 400 100 20
400 100 21 400 100 22 400 100 23 400
100 24 400 99 25 400 98 25 400 97
25 400 96 25 400 95 25 400 94 25
400 93 25 400 92 25 400 91 25 400
90 25 400 89 25 400 88 25 400 87
25 400 86 25 400 85 25 400 84 25
400 83 25 400 82 25 400 81 25 400
80 25 400 79 25 400 78 25 400 77
25 400 76 25 400 75 25 400 74 25
400 73 25 400 72 25 400 71 25 400
70 25 400 69 25 400 68 25 400 67
25 400 66 25 400 65 25 400 64 25
400 63 25 400 62 25 400 61 25 400
60 25 400 59 25 400 58 25 400 57
25 400 56 25 400 55 25 400 54 25
400 53 25 400 52 25 400 51 25 400
50 25 400 49 25 400 48 25 400 47
25 400 46 25 400 45 25 400 44 25
400 43 25 400 42 25 400 41 25 400
40 25 400 39 25 400 38 25 400 37
25 400 36 25 400 35 25 400 34 25
400 33 25 400 32 25 400 31 25 400
30 25 400 29 25 400 28 25 400 27
25 400 26 25 400 25 25 400 24 25
400 23 25 400 22 25 400 21 25 400
20 25 400 19 25 400 18 25 400 17
25 400 16 25 400 15 25 400 14 25
400 13 25 400 12 25 400 11 25 400
10 25 400 9 25 400 8 25 400 7
25 400 6 25 400 5 25 400 4 25
400 3 25 400 2 25 400 1 25 400
0 24 400 0 23 400 0 22 400 0
21 400 0 20 400 0 19 400 0 18
400 0 17 400 0 16 400 0 15 400
0 14 400 0 13 400 0 12 400 0
11 400 0 10 400 0 9 400 0 8
400 0 7 400 0 6 400 0 5 400
0 4 400 0 3 400 0 2 400 0
1 400 1 0 403.75 2 0 403.75 3 0
403.75 4 0 403.75 5 0 403.75 6 0 403.75
7 0 403.75 8 0 403.75 9 0 403.75 10
0 403.75 11 0 403.75 12 0 403.75 13 0
403.75 14 0 403.75 15 0 403.75 16 0 403.75
17 0 403.75 18 0 403.75 19 0 403.75 20
0 403.75 21 0 403.75 22 0 403.75 23 0
403.75 24 0 403.75 25 0 403.75 26 0 403.75
27 0 403.75 28 0 403.75 29 0 403.75 30
0 403.75 31 0 403.75 32 0 403.75 33 0
403.75 34 0 403.75 35 0 403.75 36 0 403.75
37 0 403.75 38 0 403.75 39 0 403.75 40
0 403.75 41 0 403.75 42 0 403.75 43 0
403.75 44 0 403.75 45 0 403.75 46 0 403.75
47 0 403.75 48 0 403.75 49 0 403.75 50
0 403.75 51 0 403.75 52 0 403.75 53 0
403.75 54 0 403.75 55 0 403.75 56 0 403.75
57 0 403.75 58 0 403.75 59 0 403.75 60
0 403.75 61 0 403.75 62 0 403.75 63 0
403.75 64 0 403.75 65 0 403.75 66 0 403.75
67 0 403.75 68 0 403.75 69 0 403.75 70
0 403.75 71 0 403.75 72 0 403.75 73 0
403.75 74 0 403.75 75 0 403.75 76 0 403.75
77 0 403.75 78 0 403.75 79 0 403.75 80
0 403.75 81 0 403.75 82 0 403.75 83 0
403.75 84 0 403.75 85 0 403.75 86 0 403.75
87 0 403.75 88 0 403.75 89 0 403.75 90
0 403.75 91 0 403.75 92 0 403.75 93 0
403.75 94 0 403.75 95 0 403.75 96 0 403.75
97 0 403.75 98 0 403.75 99 0 403.75 100
1 403.75 100 2 403.75 100 3 403.75 100 4
403.75 100 5 403.75 100 6 403.75 100 7 403.75
100 8 403.75 100 9 403.75 100 10 403.75 100
11 403.75 100 12 403.75 100 13 403.75 100 14
403.75 100 15 403.75 100 16 403.75 100 17 403.75
100 18 403.75 100 19 403.75 100 20 403.75 100
21 403.75 100 22 403.75 100 23 403.75 100 24
403.75 99 25 403.75 98 25 403.75 97 25 403.75
96 25 403.75 95 25 403.75 94 25 403.75 93
25 403.75 92 25 403.75 91 25 403.75 90 25
403.75 89 25 403.75 88 25 403.75 87 25 403.75
86 25 403.75 85 25 403.75 84 25 403.75 83
25 403.75 82 25 403.75 81 25 403.75 80 25
403.75 79 25 403.75 78 25 403.75 77 25 403.75
76 25 403.75 75 25 403.75 74 25 403.75 73
25 403.75 72 25 403.75 71 25 403.75 70 25
403.75 69 25 403.75 68 25 403.75 67 25 403.75
66 25 403.75 65 25 403.75 64 25 403.75 63
25 403.75 62 25 403.75 61 25 403.75 60 25
403.75 59 25 403.75 58 25 403.75 57 25 403.75
56 25 403.75 55 25 403.75 54 25 403.75 53
25 403.75 52 25 403.75 51 25 403.75 50 25
403.75 49 25 403.75 48 25 403.75 47 25 403.75
46 25 403.75 45 25 403.75 44 25 403.75 43
25 403.75 42 25 403.75 41 25 403.75 40 25
403.75 39 25 403.75 38 25 403.75 37 25 403.75
36 25 403.75 35 25 403.75 34 25 403.75 33
25 403.75 32 25 403.75 31 25 403.75 30 25
403.75 29 25 403.75 28 25 403.75 27 25 403.75
26 25 403.75 25 25 403.75 24 25 403.75 23
25 403.75 22 25 403.75 21 25 403.75 20 25
403.75 19 25 403.75 18 25 403.75 17 25 403.75
16 25 403.75 15 25 403.75 14 25 403.75 13
25 403.75 12 25 403.75 11 25 403.75 10 25
403.75 9 25 403.75 8 25 403.75 7 25 403.75
6 25 403.75 5 25 403.75 4 25 403.75 3
25 403.75 2 25 403.75 1 25 403.75 0 24
403.75 0 23 403.75 0 22 403.75 0 21 403.75
0 20 403.75 0 19 403.75 0 18 403.75 0
17 403.75 0 16 403.75 0 15 403.75 0 14
403.75 0 13 403.75 0 12 403.75 0 11 403.75
0 10 403.75 0 9 403.75 0 8 403.75 0
7 403.75 0 6 403.75 0 5 403.75 0 4
403.75 0 3 403.75 0 2 403.75 0 1 403.75
0 0 400.75 0 0 401.5 0 0 402.25 0
0 403 100 0 400.75 100 0 401.5 100 0
402.25 100 0 403 100 25 400.75 100 25 401.5
100 25 402.25 100 25 403 0 25 400.75 0
25 401.5 0 25 402.25 0 25 403 1 1
400 1 2 400 1 3 400 1 4 400
1 5 400 1 6 400 1 7 400 1
8 400 1 9 400 1 10 400 1 11
400 1 12 400 1 13 400 1 14 400
1 15 400 1 16 400 1 17 400 1
18 400 1 19 400 1 20 400 1 21
400 1 22 400 1 23 400 1 24 400
2 1 400 2 2 400 2 3 400 2
4 400 2 5 400 2 6 400 2 7
400 2 8 400 2 9 400 2 10 400
2 11 400 2 12 400 2 13 400 2
14 400 2 15 400 2 16 400 2 17
400 2 18 400 2 19 400 2 20 400
2 21 400 2 22 400 2 23 400 2
24 400 3 1 400 3 2 400 3 3
400 3 4 400 3 5 400 3 6 400
3 7 400 3 8 400 3 9 400 3
10 400 3 11 400 3 12 400 3 13
400 3 14 400 3 15 400 3 16 400
3 17 400 3 18 400 3 19 400 3
20 400 3 21 400 3 22 400 3 23
400 3 24 400 4 1 400 4 2 400
4 3 400 4 4 400 4 5 400 4
6 400 4 7 400 4 8 400 4 9
400 4 10 400 4 11 400 4 12 400
4 13 400 4 14 400 4 15 400 4
16 400 4 17 400 4 18 400 4 19
400 4 20 400 4 21 400 4 22 400
4 23 400 4 24 400 5 1 400 5
2 400 5 3 400 5 4 400 5 5
400 5 6 400 5 7 400 5 8 400
5 9 400 5 10 400 5 11 400 5
12 400 5 13 400 5 14 400 5 15
400 5 16 400 5 17 400 5 18 400
5 19 400 5 20 400 5 21 400 5
22 400 5 23 400 5 24 400 6 1
400 6 2 400 6 3 400 6 4 400
6 5 400 6 6 400 6 7 400 6
8 400 6 9 400 6 10 400 6 11
400 6 12 400 6 13 400 6 14 400
6 15 400 6 16 400 6 17 400 6
18 400 6 19 400 6 20 400 6 21
400 6 22 400 6 23 400 6 24 400
7 1 400 7 2 400 7 3 400 7
4 400 7 5 400 7 6 400 7 7
400 7 8 400 7 9 400 7 10 400
7 11 400 7 12 400 7 13 400 7
14 400 7 15 400 7 16 400 7 17
400 7 18 400 7 19 400 7 20 400
7 21 400 7 22 400 7 23 400 7
24 400 8 1 400 8 2 400 8 3
400 8 4 400 8 5 400 8 6 400
8 7 400 8 8 400 8 9 400 8
10 400 8 11 400 8 12 400 8 13
400 8 14 400 8 15 400 8 16 400
8 17 400 8 18 400 8 19 400 8
20 400 8 21 400 8 22 400 8 23
400 8 24 400 9 1 400 9 2 400
9 3 400 9 4 400 9 5 400 9
6 400 9 7 400 9 8 400 9 9
400 9 10 400 9 11 400 9 12 400
9 13 400 9 14 400 9 15 400 9
16 400 9 17 400 9 18 400 9 19
400 9 20 400 9 21 400 9 22 400
9 23 400 9 24 400 10 1 400 10
2 400 10 3 400 10 4 400 10 5
400 10 6 400 10 7 400 10 8 400
10 9 400 10 10 400 10 11 400 10
12 400 10 13 400 10 14 400 10 15
400 10 16 400 10 17 400 10 18 400
10 19 400 10 20 400 10 21 400 10
22 400 10 23 400 10 24 400 11 1
400 11 2 400 11 3 400 11 4 400
11 5 400 11 6 400 11 7 400 11
8 400 11 9 400 11 10 400 11 11
400 11 12 400 11 13 400 11 14 400
11 15 400 11 16 400 11 17 400 11
18 400 11 19 400 11 20 400 11 21
400 11 22 400 11 23 400 11 24 400
12 1 400 12 2 400 12 3 400 12
4 400 12 5 400 12 6 400 12 7
400 12 8 400 12 9 400 12 10 400
12 11 400 12 12 400 12 13 400 12
14 400 12 15 400 12 16 400 12 17
400 12 18 400 12 19 400 12 20 400
12 21 400 12 22 400 12 23 400 12
24 400 13 1 400 13 2 400 13 3
400 13 4 400 13 5 400 13 6 400
13 7 400 13 8 400 13 9 400 13
10 400 13 11 400 13 12 400 13 13
400 13 14 400 13 15 400 13 16 400
13 17 400 13 18 400 13 19 400 13
20 400 13 21 400 13 22 400 13 23
400 13 24 400 14 1 400 14 2 400
14 3 400 14 4 400 14 5 400 14
6 400 14 7 400 14 8 400 14 9
400 14 10 400 14 11 400 14 12 400
14 13 400 14 14 400 14 15 400 14
16 400 14 17 400 14 18 400 14 19
400 14 20 400 14 21 400 14 22 400
14 23 400 14 24 400 15 1 400 15
2 400 15 3 400 15 4 400 15 5
400 15 6 400 15 7 400 15 8 400
15 9 400 15 10 400 15 11 400 15
12 400 15 13 400 15 14 400 15 15
400 15 16 400 15 17 400 15 18 400
15 19 400 15 20 400 15 21 400 15
22 400 15 23 400 15 24 400 16 1
400 16 2 400 16 3 400 16 4 400
16 5 400 16 6 400 16 7 400 16
8 400 16 9 400 16 10 400 16 11
400 16 12 400 16 13 400 16 14 400
16 15 400 16 16 400 16 17 400 16
18 400 16 19 400 16 20 400 16 21
400 16 22 400 16 23 400 16 24 400
17 1 400 17 2 400 17 3 400 17
4 400 17 5 400 17 6 400 17 7
400 17 8 400 17 9 400 17 10 400
17 11 400 17 12 400 17 13 400 17
14 400 17 15 400 17 16 400 17 17
400 17 18 400 17 19 400 17 20 400
17 21 400 17 22 400 17 23 400 17
24 400 18 1 400 18 2 400 18 3
400 18 4 400 18 5 400 18 6 400
18 7 400 18 8 400 18 9 400 18
10 400 18 11 400 18 12 400 18 13
400 18 14 400 18 15 400 18 16 400
18 17 400 18 18 400 18 19 400 18
20 400 18 21 400 18 22 400 18 23
400 18 24 400 19 1 400 19 2 400
19 3 400 19 4 400 19 5 400 19
[...]
<PointData>
<DataArray type="Float64" Name="press" NumberOfComponents="1" format="ascii">
100 91.7367 60 104.821 100 54.9492 60 68.0334 110.03 109.508
109.07 108.465 107.913 107.422 106.987 106.599 106.248 105.927 105.631 105.353
105.091 104.843 104.606 104.378 104.158 103.944 103.737 103.534 103.336 103.142
102.95 102.762 102.576 102.392 102.21 102.03 101.852 101.674 101.498 101.323
101.149 100.976 100.803 100.631 100.46 100.289 100.119 99.949 99.7795 99.6103
99.4415 99.2729 99.1047 98.9367 98.7689 98.6013 98.434 98.2668 98.0999 97.9331
97.7665 97.6001 97.4339 97.2679 97.1022 96.9366 96.7713 96.6062 96.4414 96.277
96.1128 95.9491 95.7858 95.623 95.4608 95.2991 95.1382 94.9781 94.8188 94.6606
94.5035 94.3477 94.1933 94.0406 93.8897 93.7409 93.5943 93.4504 93.3093 93.1715
93.0372 92.9069 92.781 92.6599 92.544 92.4339 92.33 92.2329 92.1431 92.0611
91.9873 91.9223 91.8665 91.8202 91.7839 91.7577 91.7419 91.7313 91.7152 91.6883
91.6503 91.6009 91.5398 91.4662 91.3796 91.2791 91.1636 91.0318 90.882 90.7121
90.5193 90.3002 90.0498 89.7612 89.4244 89.0225 88.5256 87.8702 86.9302 85.1947
82.472 82.4755 85.2087 86.9617 87.9263 88.6133 89.1487 89.5962 89.9856 90.3338
90.6509 90.9438 91.2173 91.4752 91.72 91.954 92.1788 92.396 92.6066 92.8115
93.0116 93.2075 93.3998 93.589 93.7754 93.9594 94.1413 94.3214 94.4999 94.677
94.8528 95.0276 95.2013 95.3743 95.5464 95.7179 95.8889 96.0593 96.2292 96.3988
96.5679 96.7368 96.9054 97.0737 97.2418 97.4096 97.5773 97.7449 97.9122 98.0795
98.2465 98.4135 98.5804 98.7471 98.9137 99.0801 99.2464 99.4126 99.5786 99.7445
99.9101 100.076 100.241 100.406 100.57 100.734 100.898 101.061 101.224 101.386
101.547 101.707 101.867 102.025 102.182 102.338 102.492 102.644 102.795 102.942
103.088 103.23 103.37 103.505 103.637 103.764 103.887 104.004 104.115 104.22
104.319 104.409 104.493 104.567 104.633 104.69 104.736 104.773 104.8 104.816
104.826 104.843 104.87 104.909 104.959 105.021 105.096 105.184 105.286 105.404
105.538 105.69 105.863 106.059 106.282 106.535 106.826 107.161 107.549 108.002
108.522 109.102 109.522 110.033 77.4186 74.6577 72.8861 71.9083 71.2109 70.6671
70.2123 69.8166 69.4628 69.1407 68.8433 68.5656 68.3039 68.0556 67.8183 67.5903
67.3702 67.1569 66.9493 66.7468 66.5485 66.354 66.1628 65.9744 65.7885 65.6048
65.423 65.2429 65.0642 64.887 64.7109 64.5358 64.3616 64.1883 64.0157 63.8438
63.6725 63.5017 63.3314 63.1615 62.992 62.8228 62.654 62.4854 62.3172 62.1492
61.9814 61.8138 61.6465 61.4793 61.3124 61.1456 60.979 60.8126 60.6464 60.4804
60.3147 60.1491 59.9838 59.8187 59.6539 59.4895 59.3253 59.1616 58.9983 58.8355
58.6733 58.5116 58.3507 58.1906 58.0313 57.8731 57.716 57.5602 57.4058 57.2531
57.1022 56.9534 56.8068 56.6629 56.5218 56.384 56.2497 56.1194 55.9935 55.8724
55.7565 55.6464 55.5425 55.4454 55.3556 55.2736 55.1998 55.1348 55.079 55.0327
54.9964 54.9702 54.9544 54.9438 54.9277 54.9008 54.8628 54.8134 54.7523 54.6787
54.5921 54.4916 54.3761 54.2443 54.0946 53.9247 53.7321 53.5134 53.2642 52.9787
52.6495 52.2676 51.8232 51.3136 50.7458 50.3443 49.8608 49.8643 50.3583 50.7773
51.3697 51.9108 52.3938 52.8213 53.203 53.5482 53.8641 54.1566 54.43 54.6877
54.9325 55.1665 55.3913 55.6085 55.8191 56.024 56.2241 56.42 56.6123 56.8015
56.9879 57.1719 57.3538 57.5339 57.7124 57.8895 58.0653 58.2401 58.4138 58.5868
58.7589 58.9304 59.1014 59.2718 59.4417 59.6113 59.7804 59.9493 60.1179 60.2862
60.4543 60.6221 60.7898 60.9574 61.1247 61.292 61.459 61.626 61.7929 61.9596
62.1262 62.2926 62.4589 62.6251 62.7911 62.957 63.1226 63.288 63.4532 63.618
63.7826 63.9467 64.1104 64.2736 64.4363 64.5983 64.7595 64.9199 65.0794 65.2377
65.3948 65.5505 65.7045 65.8568 66.007 66.1549 66.3003 66.4428 66.582 66.7177
66.8494 66.9767 67.0992 67.2164 67.3278 67.4328 67.5311 67.622 67.705 67.7797
67.8455 67.902 67.9488 67.9856 68.0121 68.0281 68.0389 68.0552 68.0826 68.1213
68.1715 68.2338 68.3086 68.3967 68.499 68.6165 68.7506 68.903 69.0759 69.272
69.495 69.7497 70.0432 70.3858 70.7945 71.2995 71.9649 72.918 74.6718 77.4221
100 100 100 100 84.3792 77.0217 69.6642 62.3067 60 60
60 60 97.4634 90.1059 82.7484 75.3909 109.198 109.511 108.992 108.454
107.952 107.512 107.132 106.803 106.517 106.266 106.046 105.852 105.68 105.529
105.396 105.279 105.177 105.09 105.015 104.953 104.903 104.865 104.837 104.821
109.5 109.138 108.737 108.26 107.81 107.405 107.049 106.737 106.463 106.221
106.007 105.818 105.651 105.502 105.371 105.257 105.156 105.07 104.997 104.935
104.886 104.848 104.821 104.805 108.963 108.719 108.365 107.979 107.596 107.241
106.92 106.632 106.376 106.148 105.944 105.763 105.602 105.458 105.331 105.22
105.122 105.038 104.966 104.906 104.858 104.821 104.794 104.778 108.401 108.218
107.954 107.65 107.337 107.035 106.753 106.495 106.261 106.05 105.859 105.688
105.535 105.398 105.276 105.169 105.075 104.993 104.924 104.866 104.819 104.783
104.757 104.741 107.867 107.735 107.54 107.305 107.054 106.802 106.56 106.333
106.123 105.931 105.755 105.596 105.452 105.323 105.207 105.105 105.015 104.937
104.87 104.814 104.769 104.734 104.709 104.694 107.388 107.292 107.145 106.964
106.763 106.556 106.351 106.154 105.968 105.795 105.635 105.488 105.355 105.234
105.126 105.029 104.944 104.869 104.806 104.752 104.709 104.676 104.652 104.638
106.962 106.89 106.778 106.636 106.475 106.305 106.132 105.963 105.8 105.645
105.501 105.368 105.245 105.133 105.032 104.942 104.862 104.792 104.731 104.681
104.64 104.608 104.585 104.572 106.58 106.525 106.438 106.325 106.195 106.055
105.909 105.764 105.622 105.486 105.357 105.236 105.124 105.022 104.928 104.844
104.769 104.704 104.647 104.6 104.561 104.531 104.51 104.497 106.234 106.19
106.121 106.031 105.925 105.809 105.686 105.562 105.439 105.319 105.204 105.096
104.994 104.901 104.815 104.738 104.668 104.607 104.555 104.51 104.474 104.446
104.426 104.413 105.916 105.881 105.826 105.752 105.665 105.568 105.465 105.359
105.252 105.147 105.045 104.948 104.857 104.772 104.694 104.623 104.559 104.503
104.454 104.413 104.379 104.352 104.334 104.322 105.621 105.593 105.548 105.488
105.416 105.334 105.247 105.155 105.063 104.971 104.881 104.795 104.713 104.637
104.566 104.501 104.443 104.391 104.346 104.307 104.276 104.252 104.234 104.224
105.345 105.322 105.285 105.235 105.175 105.106 105.032 104.954 104.873 104.793
104.714 104.638 104.565 104.496 104.432 104.373 104.32 104.272 104.231 104.196
104.167 104.144 104.128 104.119 105.085 105.066 105.035 104.993 104.943 104.885
104.821 104.754 104.684 104.614 104.545 104.477 104.412 104.35 104.292 104.239
104.191 104.148 104.11 104.078 104.051 104.031 104.016 104.007 104.838 104.822
104.796 104.761 104.718 104.669 104.614 104.556 104.496 104.435 104.374 104.314
104.256 104.201 104.149 104.101 104.057 104.018 103.984 103.954 103.93 103.911
103.898 103.889 104.601 104.588 104.566 104.536 104.5 104.458 104.411 104.361
104.308 104.255 104.201 104.148 104.097 104.048 104.002 103.959 103.919 103.884
103.853 103.826 103.804 103.787 103.774 103.767 104.374 104.363 104.344 104.319
104.288 104.251 104.211 104.168 104.122 104.075 104.028 103.982 103.936 103.893
103.851 103.813 103.777 103.745 103.717 103.693 103.673 103.657 103.646 103.639
104.154 104.145 104.129 104.107 104.081 104.049 104.015 103.977 103.937 103.897
103.855 103.814 103.774 103.735 103.698 103.664 103.632 103.603 103.578 103.556
103.538 103.524 103.513 103.507 103.942 103.933 103.92 103.901 103.878 103.851
103.821 103.788 103.754 103.718 103.682 103.646 103.61 103.576 103.543 103.512
103.483 103.458 103.435 103.415 103.399 103.386 103.377 103.371 103.734 103.727
103.716 103.7 103.68 103.657 103.63 103.602 103.572 103.54 103.509 103.477
103.445 103.415 103.385 103.358 103.333 103.31 103.289 103.271 103.257 103.245
103.237 103.232 103.532 103.526 103.516 103.502 103.485 103.465 103.442 103.417
103.391 103.364 103.335 103.307 103.28 103.252 103.227 103.202 103.179 103.159
103.141 103.125 103.112 103.101 103.094 103.089 103.334 103.329 103.32 103.308
103.293 103.276 103.256 103.234 103.211 103.187 103.163 103.138 103.113 103.089
103.066 103.045 103.024 103.006 102.99 102.976 102.964 102.955 102.948 102.944
103.14 103.135 103.128 103.117 103.104 103.089 103.072 103.053 103.033 103.012
102.99 102.968 102.947 102.925 102.905 102.886 102.868 102.851 102.837 102.824
102.814 102.805 102.799 102.796 102.949 102.945 102.938 102.929 102.918 102.905
102.89 102.873 102.855 102.837 102.818 102.799 102.779 102.761 102.743 102.726
102.71 102.695 102.682 102.671 102.661 102.654 102.649 102.645 102.761 102.757
102.751 102.744 102.734 102.722 102.709 102.695 102.679 102.663 102.646 102.629
102.612 102.596 102.58 102.564 102.55 102.537 102.526 102.516 102.507 102.501
102.496 102.493 102.575 102.572 102.567 102.56 102.551 102.541 102.53 102.517
102.503 102.489 102.474 102.459 102.445 102.43 102.416 102.402 102.39 102.378
102.368 102.359 102.352 102.346 102.341 102.339 102.391 102.389 102.384 102.378
102.371 102.362 102.352 102.341 102.329 102.316 102.303 102.29 102.277 102.264
102.251 102.239 102.228 102.218 102.209 102.201 102.194 102.189 102.185 102.183
102.21 102.207 102.204 102.198 102.192 102.184 102.175 102.165 102.155 102.144
102.132 102.121 102.109 102.098 102.087 102.076 102.066 102.057 102.049 102.042
102.036 102.031 102.028 102.026 102.03 102.028 102.024 102.02 102.014 102.007
101.999 101.991 101.981 101.972 101.962 101.951 101.941 101.931 101.921 101.912
101.903 101.895 101.888 101.882 101.876 101.872 101.869 101.867 101.851 101.849
101.846 101.842 101.837 101.831 101.824 101.817 101.809 101.8 101.791 101.782
101.773 101.764 101.756 101.747 101.74 101.733 101.726 101.721 101.716 101.712
101.71 101.708 101.674 101.672 101.67 101.666 101.662 101.657 101.651 101.644
101.637 101.629 101.621 101.613 101.605 101.597 101.59 101.582 101.576 101.569
101.564 101.559 101.555 101.551 101.549 101.547 101.498 101.497 101.494 101.491
101.487 101.483 101.477 101.471 101.465 101.458 101.452 101.445 101.437 101.43
101.424 101.417 101.411 101.406 101.401 101.396 101.392 101.39 101.387 101.386
101.323 101.322 101.32 101.317 101.313 101.309 101.305 101.3 101.294 101.288
101.282 101.276 101.27 101.263 101.257 101.252 101.246 101.241 101.237 101.233
101.23 101.227 101.225 101.224 101.149 101.148 101.146 101.144 101.141 101.137
101.133 101.128 101.123 101.118 101.113 101.107 101.102 101.096 101.091 101.086
101.081 101.077 101.073 101.069 101.066 101.064 101.062 101.061 100.976 100.975
100.973 100.971 100.968 100.965 100.961 100.957 100.953 100.948 100.944 100.939
100.934 100.929 100.924 100.92 100.916 100.912 100.908 100.905 100.903 100.901
100.899 100.898 100.803 100.802 100.801 100.799 100.797 100.794 100.79 100.787
100.783 100.779 100.775 100.77 100.766 100.762 100.758 100.754 100.75 100.746
100.743 100.741 100.738 100.737 100.735 100.734 100.631 100.63 100.629 100.627
100.625 100.623 100.62 100.617 100.613 100.61 100.606 100.602 100.598 100.595
100.591 100.587 100.584 100.581 100.578 100.576 100.574 100.572 100.571 100.57
100.46 100.459 100.458 100.457 100.455 100.452 100.45 100.447 100.444 100.441
100.438 100.434 100.431 100.427 100.424 100.421 100.418 100.415 100.413 100.411
100.409 100.407 100.406 100.406 100.289 100.288 100.287 100.286 100.284 100.283
100.28 100.278 100.275 100.272 100.269 100.266 100.263 100.26 100.257 100.254
100.252 100.249 100.247 100.245 100.244 100.242 100.241 100.241 100.119 100.118
100.117 100.116 100.115 100.113 100.111 100.109 100.106 100.104 100.101 100.098
100.096 100.093 100.09 100.088 100.085 100.083 100.081 100.08 100.078 100.077
100.076 100.076 99.9488 99.9483 99.9476 99.9465 99.9452 99.9436 99.9418 99.9399
99.9377 99.9354 99.9331 99.9306 99.9282 99.9258 99.9234 99.9212 99.919 99.9171
99.9153 99.9138 99.9125 99.9115 99.9107 99.9103 99.7793 99.7789 99.7782 99.7773
99.7761 99.7747 99.7731 99.7713 99.7693 99.7673 99.7652 99.763 99.7608 99.7586
99.7565 99.7544 99.7525 99.7508 99.7492 99.7478 99.7466 99.7457 99.745 99.7446
99.6102 99.6098 99.6092 99.6083 99.6073 99.606 99.6045 99.6029 99.6012 99.5993
99.5974 99.5954 99.5934 99.5914 99.5895 99.5877 99.5859 99.5843 99.5829 99.5816
99.5806 99.5797 99.5791 99.5788 99.4414 99.441 99.4405 99.4397 99.4387 99.4375
99.4362 99.4347 99.4331 99.4315 99.4297 99.4279 99.4261 99.4243 99.4225 99.4209
99.4193 99.4178 99.4165 99.4154 99.4144 99.4136 99.4131 99.4127 99.2728 99.2725
99.272 99.2713 99.2704 99.2693 99.2681 99.2668 99.2653 99.2638 99.2621 99.2605
99.2588 99.2572 99.2556 99.254 99.2526 99.2512 99.25 99.249 99.2481 99.2474
99.2469 99.2466 99.1046 99.1043 99.1038 99.1032 99.1023 99.1013 99.1002 99.099
99.0976 99.0962 99.0947 99.0931 99.0916 99.0901 99.0886 99.0872 99.0858 99.0846
99.0834 99.0825 99.0816 99.081 99.0805 99.0802 98.9366 98.9363 98.9359 98.9352
98.9345 98.9335 98.9325 98.9313 98.93 98.9287 98.9273 98.9259 98.9244 98.923
98.9216 98.9203 98.919 98.9178 98.9168 98.9159 98.9151 98.9145 98.914 98.9138
98.7688 98.7685 98.7681 98.7675 98.7668 98.7659 98.7649 98.7638 98.7626 98.7613
98.76 98.7587 98.7573 98.7559 98.7546 98.7533 98.7521 98.751 98.75 98.7492
98.7484 98.7478 98.7474 98.7472 98.6013 98.601 98.6006 98.6 98.5993 98.5985
98.5975 98.5965 98.5953 98.5941 98.5928 98.5915 98.5902 98.5889 98.5876 98.5864
98.5852 98.5842 98.5832 98.5824 98.5817 98.5811 98.5807 98.5804 98.4339 98.4337
98.4333 98.4327 98.432 98.4312 98.4303 98.4292 98.4281 98.4269 98.4257 98.4244
98.4231 98.4218 98.4206 98.4194 98.4183 98.4172 98.4163 98.4155 98.4148 98.4142
98.4138 98.4136 98.2668 98.2665 98.2661 98.2656 98.2649 98.2641 98.2632 98.2621
98.261 98.2598 98.2586 98.2573 98.2561 98.2548 98.2536 98.2524 98.2513 98.2502
98.2493 98.2485 98.2478 98.2473 98.2469 98.2466 98.0998 98.0996 98.0992 98.0986
98.0979 98.0971 98.0962 98.0951 98.094 98.0928 98.0916 98.0903 98.089 98.0878
98.0865 98.0853 98.0842 98.0832 98.0822 98.0814 98.0807 98.0802 98.0798 98.0795
97.933 97.9328 97.9324 97.9318 97.9311 97.9303 97.9293 97.9283 97.9271 97.9259
97.9246 97.9233 97.922 97.9207 97.9194 97.9182 97.9171 97.916 97.9151 97.9142
97.9135 97.913 97.9126 97.9123 97.7664 97.7662 97.7658 97.7652 97.7645 97.7636
97.7626 97.7615 97.7603 97.7591 97.7577 97.7564 97.755 97.7537 97.7524 97.7511
97.7499 97.7488 97.7478 97.7469 97.7462 97.7456 97.7452 97.7449 97.6001 97.5998
97.5993 97.5987 97.598 97.5971 97.596 97.5949 97.5936 97.5923 97.5909 97.5895
97.588 97.5866 97.5852 97.5839 97.5826 97.5815 97.5804 97.5795 97.5787 97.5781
97.5777 97.5774 97.4338 97.4336 97.4331 97.4324 97.4316 97.4307 97.4296 97.4283
97.427 97.4256 97.4241 97.4226 97.4211 97.4195 97.4181 97.4166 97.4153 97.4141
97.4129 97.412 97.4111 97.4105 97.41 97.4097 97.2678 97.2675 97.267 97.2663
97.2655 97.2644 97.2632 97.2619 97.2605 97.2589 97.2573 97.2557 97.2541 97.2524
97.2508 97.2493 97.2479 97.2465 97.2453 97.2443 97.2434 97.2427 97.2422 97.2419
97.102 97.1017 97.1012 97.1004 97.0995 97.0983 97.097 97.0956 97.094 97.0924
97.0906 97.0889 97.0871 97.0853 97.0836 97.0819 97.0803 97.0789 97.0776 97.0764
97.0754 97.0747 97.0741 97.0738 96.9365 96.9361 96.9355 96.9347 96.9336 96.9324
96.931 96.9294 96.9277 96.9259 96.924 96.922 96.9201 96.9181 96.9162 96.9144
96.9127 96.9111 96.9096 96.9084 96.9073 96.9065 96.9058 96.9055 96.7711 96.7707
96.7701 96.7692 96.768 96.7666 96.7651 96.7633 96.7614 96.7594 96.7573 96.7552
96.753 96.7509 96.7488 96.7468 96.7449 96.7431 96.7415 96.7401 96.7389 96.738
96.7373 96.7369 96.6061 96.6056 96.6049 96.6039 96.6026 96.6011 96.5993 96.5974
96.5953 96.5931 96.5908 96.5884 96.586 96.5836 96.5813 96.579 96.5769 96.5749
96.5732 96.5716 96.5703 96.5693 96.5685 96.5681 96.4413 96.4408 96.4399 96.4388
96.4374 96.4357 96.4338 96.4316 96.4293 96.4268 96.4242 96.4216 96.4189 96.4162
96.4136 96.4111 96.4088 96.4066 96.4046 96.4029 96.4014 96.4003 96.3994 96.3989
96.2768 96.2762 96.2753 96.2741 96.2725 96.2706 96.2684 96.266 96.2634 96.2606
96.2577 96.2548 96.2518 96.2488 96.2459 96.2431 96.2404 96.238 96.2358 96.2338
96.2322 96.2309 96.23 96.2294 96.1126 96.112 96.111 96.1096 96.1078 96.1057
96.1033 96.1006 96.0977 96.0946 96.0913 96.088 96.0846 96.0813 96.078 96.0749
96.0719 96.0691 96.0666 96.0645 96.0626 96.0612 96.0601 96.0595 95.9489 95.9482
95.947 95.9455 95.9435 95.9411 95.9384 95.9354 95.9321 95.9286 95.9249 95.9212
95.9174 95.9136 95.91 95.9064 95.9031 95.9 95.8972 95.8947 95.8927 95.891
95.8898 95.8891 95.7856 95.7848 95.7835 95.7817 95.7795 95.7768 95.7738 95.7704
95.7667 95.7627 95.7586 95.7544 95.7501 95.7459 95.7418 95.7378 95.734 95.7305
95.7273 95.7246 95.7222 95.7204 95.719 95.7182 95.6227 95.6219 95.6204 95.6184
95.6159 95.6129 95.6094 95.6056 95.6014 95.597 95.5924 95.5876 95.5828 95.578
95.5734 95.5688 95.5646 95.5606 95.5571 95.5539 95.5513 95.5492 95.5477 95.5467
95.4604 95.4595 95.4578 95.4556 95.4527 95.4494 95.4455 95.4412 95.4365 95.4315
95.4262 95.4209 95.4155 95.41 95.4047 95.3996 95.3948 95.3903 95.3863 95.3828
95.3798 95.3774 95.3757 95.3746 95.2988 95.2977 95.2958 95.2933 95.2901 95.2863
95.2819 95.277 95.2717 95.2661 95.2602 95.2541 95.248 95.2419 95.2359 95.2301
95.2246 95.2196 95.215 95.211 95.2076 95.2049 95.2029 95.2017 95.1378 95.1365
95.1345 95.1316 95.128 95.1237 95.1188 95.1133 95.1073 95.101 95.0943 95.0874
95.0805 95.0736 95.0668 95.0602 95.054 95.0483 95.0431 95.0385 95.0347 95.0316
95.0294 95.028 94.9776 94.9762 94.9739 94.9706 94.9666 94.9617 94.9562 94.95
94.9432 94.936 94.9285 94.9208 94.9129 94.9051 94.8974 94.8899 94.8829 94.8764
94.8705 94.8653 94.8609 94.8574 94.8549 94.8533 94.8183 94.8167 94.8141 94.8105
94.8059 94.8004 94.7942 94.7872 94.7795 94.7714 94.7629 94.7541 94.7452 94.7364
94.7276 94.7192 94.7112 94.7038 94.6971 94.6912 94.6862 94.6822 94.6793 94.6776
94.66 94.6582 94.6553 94.6512 94.646 94.6399 94.6328 94.6249 94.6163 94.6071
94.5975 94.5876 94.5775 94.5674 94.5575 94.548 94.5389 94.5304 94.5228 94.5161
94.5104 94.5059 94.5026 94.5006 94.5028 94.5008 94.4975 94.4929 94.4871 94.4802
94.4722 94.4633 94.4536 94.4432 94.4324 94.4211 94.4097 94.3983 94.387 94.3762
94.3658 94.3562 94.3475 94.3399 94.3334 94.3282 94.3245 94.3222 94.3469 94.3447
94.3409 94.3358 94.3292 94.3214 94.3125 94.3024 94.2915 94.2798 94.2675 94.2548
94.2418 94.2289 94.2161 94.2038 94.192 94.1811 94.1712 94.1624 94.155 94.1491
94.1448 94.1422 94.1925 94.1899 94.1857 94.1799 94.1726 94.1638 94.1537 94.1424
94.1301 94.1169 94.103 94.0886 94.0739 94.0592 94.0447 94.0307 94.0173 94.0048
93.9935 93.9835 93.9751 93.9683 93.9634 93.9604 94.0396 94.0368 94.0321 94.0256
94.0173 94.0075 93.9961 93.9834 93.9695 93.9546 93.9389 93.9226 93.906 93.8893
93.8728 93.8569 93.8416 93.8274 93.8144 93.803 93.7933 93.7856 93.78 93.7765
93.8886 93.8854 93.8802 93.8729 93.8636 93.8526 93.8398 93.8255 93.8098 93.793
93.7753 93.7569 93.738 93.7191 93.7004 93.6822 93.6648 93.6486 93.6338 93.6207
93.6096 93.6007 93.5943 93.5903 93.7397 93.7361 93.7302 93.722 93.7117 93.6993
93.685 93.6689 93.6513 93.6323 93.6123 93.5914 93.5701 93.5487 93.5274 93.5066
93.4868 93.4682 93.4513 93.4363 93.4235 93.4133 93.4059 93.4014 93.593 93.589
93.5824 93.5733 93.5617 93.5479 93.5318 93.5137 93.4939 93.4726 93.45 93.4264
93.4023 93.3779 93.3537 93.3301 93.3074 93.2862 93.2667 93.2495 93.2349 93.2231
93.2145 93.2093 93.4489 93.4445 93.4371 93.427 93.414 93.3985 93.3805 93.3603
93.3381 93.314 93.2886 93.262 93.2347 93.207 93.1794 93.1525 93.1266 93.1022
93.0799 93.0601 93.0432 93.0296 93.0197 93.0137 93.3077 93.3028 93.2946 93.2833
93.2689 93.2516 93.2315 93.2088 93.1839 93.1569 93.1282 93.0982 93.0672 93.0359
93.0045 92.9737 92.9441 92.9161 92.8904 92.8676 92.8481 92.8324 92.8209 92.8139
93.1697 93.1642 93.1552 93.1426 93.1266 93.1073 93.0849 93.0596 93.0316 93.0014
92.9691 92.9352 92.9002 92.8646 92.8289 92.7938 92.7598 92.7277 92.6981 92.6717
92.6491 92.6309 92.6175 92.6093 93.0352 93.0292 93.0191 93.0052 92.9874 92.966
92.9411 92.9129 92.8817 92.8478 92.8115 92.7733 92.7338 92.6933 92.6527 92.6125
92.5736 92.5366 92.5024 92.4718 92.4456 92.4244 92.4088 92.3992 92.9047 92.898
92.887 92.8716 92.8519 92.8282 92.8005 92.7692 92.7344 92.6964 92.6557 92.6128