<VTKFile type="UnstructuredGrid" version="1.0">
<UnstructuredGrid>
<FieldData>
<DataArray type="Float64" Name="TIME" NumberOfTuples="1" format="ascii" RangeMin="0" RangeMax="0">
0
</DataArray>
</FieldData>
<Piece NumberOfPoints="2025" NumberOfCells="1536">
<Points>
<DataArray type="Float64" NumberOfComponents="3" format="ascii">
500 500 1500 437.5 500 1500 375 500 1500 312.5
500 1500 250 500 1500 187.5 500 1500 125 500
1500 62.5 500 1500 0 500 1500 500 437.5 1500
437.5 437.5 1500 375 437.5 1500 312.5 437.5 1500 250
437.5 1500 187.5 437.5 1500 125 437.5 1500 62.5 437.5
1500 0 437.5 1500 500 375 1500 437.5 375 1500
375 375 1500 312.5 375 1500 250 375 1500 187.5
375 1500 125 375 1500 62.5 375 1500 0 375
1500 500 312.5 1500 437.5 312.5 1500 375 312.5 1500
312.5 312.5 1500 250 312.5 1500 187.5 312.5 1500 125
312.5 1500 62.5 312.5 1500 0 312.5 1500 500 250
1500 437.5 250 1500 375 250 1500 312.5 250 1500
250 250 1500 187.5 250 1500 125 250 1500 62.5
250 1500 0 250 1500 500 187.5 1500 437.5 187.5
1500 375 187.5 1500 312.5 187.5 1500 250 187.5 1500
187.5 187.5 1500 125 187.5 1500 62.5 187.5 1500 0
187.5 1500 500 125 1500 437.5 125 1500 375 125
1500 312.5 125 1500 250 125 1500 187.5 125 1500
125 125 1500 62.5 125 1500 0 125 1500 500
62.5 1500 437.5 62.5 1500 375 62.5 1500 312.5 62.5
1500 250 62.5 1500 187.5 62.5 1500 125 62.5 1500
62.5 62.5 1500 0 62.5 1500 500 0 1500 437.5
0 1500 375 0 1500 312.5 0 1500 250 0
1500 187.5 0 1500 125 0 1500 62.5 0 1500
0 0 1500 500 500 1437.5 437.5 500 1437.5 375
500 1437.5 312.5 500 1437.5 250 500 1437.5 187.5 500
1437.5 125 500 1437.5 62.5 500 1437.5 0 500 1437.5
500 437.5 1437.5 437.5 437.5 1437.5 375 437.5 1437.5 312.5
437.5 1437.5 250 437.5 1437.5 187.5 437.5 1437.5 125 437.5
1437.5 62.5 437.5 1437.5 0 437.5 1437.5 500 375 1437.5
437.5 375 1437.5 375 375 1437.5 312.5 375 1437.5 250
375 1437.5 187.5 375 1437.5 125 375 1437.5 62.5 375
1437.5 0 375 1437.5 500 312.5 1437.5 437.5 312.5 1437.5
375 312.5 1437.5 312.5 312.5 1437.5 250 312.5 1437.5 187.5
312.5 1437.5 125 312.5 1437.5 62.5 312.5 1437.5 0 312.5
1437.5 500 250 1437.5 437.5 250 1437.5 375 250 1437.5
312.5 250 1437.5 250 250 1437.5 187.5 250 1437.5 125
250 1437.5 62.5 250 1437.5 0 250 1437.5 500 187.5
1437.5 437.5 187.5 1437.5 375 187.5 1437.5 312.5 187.5 1437.5
250 187.5 1437.5 187.5 187.5 1437.5 125 187.5 1437.5 62.5
187.5 1437.5 0 187.5 1437.5 500 125 1437.5 437.5 125
1437.5 375 125 1437.5 312.5 125 1437.5 250 125 1437.5
187.5 125 1437.5 125 125 1437.5 62.5 125 1437.5 0
125 1437.5 500 62.5 1437.5 437.5 62.5 1437.5 375 62.5
1437.5 312.5 62.5 1437.5 250 62.5 1437.5 187.5 62.5 1437.5
125 62.5 1437.5 62.5 62.5 1437.5 0 62.5 1437.5 500
0 1437.5 437.5 0 1437.5 375 0 1437.5 312.5 0
1437.5 250 0 1437.5 187.5 0 1437.5 125 0 1437.5
62.5 0 1437.5 0 0 1437.5 500 500 1375 437.5
500 1375 375 500 1375 312.5 500 1375 250 500
1375 187.5 500 1375 125 500 1375 62.5 500 1375
0 500 1375 500 437.5 1375 437.5 437.5 1375 375
437.5 1375 312.5 437.5 1375 250 437.5 1375 187.5 437.5
1375 125 437.5 1375 62.5 437.5 1375 0 437.5 1375
500 375 1375 437.5 375 1375 375 375 1375 312.5
375 1375 250 375 1375 187.5 375 1375 125 375
1375 62.5 375 1375 0 375 1375 500 312.5 1375
437.5 312.5 1375 375 312.5 1375 312.5 312.5 1375 250
312.5 1375 187.5 312.5 1375 125 312.5 1375 62.5 312.5
1375 0 312.5 1375 500 250 1375 437.5 250 1375
375 250 1375 312.5 250 1375 250 250 1375 187.5
250 1375 125 250 1375 62.5 250 1375 0 250
1375 500 187.5 1375 437.5 187.5 1375 375 187.5 1375
312.5 187.5 1375 250 187.5 1375 187.5 187.5 1375 125
187.5 1375 62.5 187.5 1375 0 187.5 1375 500 125
1375 437.5 125 1375 375 125 1375 312.5 125 1375
250 125 1375 187.5 125 1375 125 125 1375 62.5
125 1375 0 125 1375 500 62.5 1375 437.5 62.5
1375 375 62.5 1375 312.5 62.5 1375 250 62.5 1375
187.5 62.5 1375 125 62.5 1375 62.5 62.5 1375 0
62.5 1375 500 0 1375 437.5 0 1375 375 0
1375 312.5 0 1375 250 0 1375 187.5 0 1375
125 0 1375 62.5 0 1375 0 0 1375 500
500 1312.5 437.5 500 1312.5 375 500 1312.5 312.5 500
1312.5 250 500 1312.5 187.5 500 1312.5 125 500 1312.5
62.5 500 1312.5 0 500 1312.5 500 437.5 1312.5 437.5
437.5 1312.5 375 437.5 1312.5 312.5 437.5 1312.5 250 437.5
1312.5 187.5 437.5 1312.5 125 437.5 1312.5 62.5 437.5 1312.5
0 437.5 1312.5 500 375 1312.5 437.5 375 1312.5 375
375 1312.5 312.5 375 1312.5 250 375 1312.5 187.5 375
1312.5 125 375 1312.5 62.5 375 1312.5 0 375 1312.5
500 312.5 1312.5 437.5 312.5 1312.5 375 312.5 1312.5 312.5
312.5 1312.5 250 312.5 1312.5 187.5 312.5 1312.5 125 312.5
1312.5 62.5 312.5 1312.5 0 312.5 1312.5 500 250 1312.5
437.5 250 1312.5 375 250 1312.5 312.5 250 1312.5 250
250 1312.5 187.5 250 1312.5 125 250 1312.5 62.5 250
1312.5 0 250 1312.5 500 187.5 1312.5 437.5 187.5 1312.5
375 187.5 1312.5 312.5 187.5 1312.5 250 187.5 1312.5 187.5
187.5 1312.5 125 187.5 1312.5 62.5 187.5 1312.5 0 187.5
1312.5 500 125 1312.5 437.5 125 1312.5 375 125 1312.5
312.5 125 1312.5 250 125 1312.5 187.5 125 1312.5 125
125 1312.5 62.5 125 1312.5 0 125 1312.5 500 62.5
1312.5 437.5 62.5 1312.5 375 62.5 1312.5 312.5 62.5 1312.5
250 62.5 1312.5 187.5 62.5 1312.5 125 62.5 1312.5 62.5
62.5 1312.5 0 62.5 1312.5 500 0 1312.5 437.5 0
1312.5 375 0 1312.5 312.5 0 1312.5 250 0 1312.5
187.5 0 1312.5 125 0 1312.5 62.5 0 1312.5 0
0 1312.5 500 500 1250 437.5 500 1250 375 500
1250 312.5 500 1250 250 500 1250 187.5 500 1250
125 500 1250 62.5 500 1250 0 500 1250 500
437.5 1250 437.5 437.5 1250 375 437.5 1250 312.5 437.5
1250 250 437.5 1250 187.5 437.5 1250 125 437.5 1250
62.5 437.5 1250 0 437.5 1250 500 375 1250 437.5
375 1250 375 375 1250 312.5 375 1250 250 375
1250 187.5 375 1250 125 375 1250 62.5 375 1250
0 375 1250 500 312.5 1250 437.5 312.5 1250 375
312.5 1250 312.5 312.5 1250 250 312.5 1250 187.5 312.5
1250 125 312.5 1250 62.5 312.5 1250 0 312.5 1250
500 250 1250 437.5 250 1250 375 250 1250 312.5
250 1250 250 250 1250 187.5 250 1250 125 250
1250 62.5 250 1250 0 250 1250 500 187.5 1250
437.5 187.5 1250 375 187.5 1250 312.5 187.5 1250 250
187.5 1250 187.5 187.5 1250 125 187.5 1250 62.5 187.5
1250 0 187.5 1250 500 125 1250 437.5 125 1250
375 125 1250 312.5 125 1250 250 125 1250 187.5
125 1250 125 125 1250 62.5 125 1250 0 125
1250 500 62.5 1250 437.5 62.5 1250 375 62.5 1250
312.5 62.5 1250 250 62.5 1250 187.5 62.5 1250 125
62.5 1250 62.5 62.5 1250 0 62.5 1250 500 0
1250 437.5 0 1250 375 0 1250 312.5 0 1250
250 0 1250 187.5 0 1250 125 0 1250 62.5
0 1250 0 0 1250 500 500 1187.5 437.5 500
1187.5 375 500 1187.5 312.5 500 1187.5 250 500 1187.5
187.5 500 1187.5 125 500 1187.5 62.5 500 1187.5 0
500 1187.5 500 437.5 1187.5 437.5 437.5 1187.5 375 437.5
1187.5 312.5 437.5 1187.5 250 437.5 1187.5 187.5 437.5 1187.5
125 437.5 1187.5 62.5 437.5 1187.5 0 437.5 1187.5 500
375 1187.5 437.5 375 1187.5 375 375 1187.5 312.5 375
1187.5 250 375 1187.5 187.5 375 1187.5 125 375 1187.5
62.5 375 1187.5 0 375 1187.5 500 312.5 1187.5 437.5
312.5 1187.5 375 312.5 1187.5 312.5 312.5 1187.5 250 312.5
1187.5 187.5 312.5 1187.5 125 312.5 1187.5 62.5 312.5 1187.5
0 312.5 1187.5 500 250 1187.5 437.5 250 1187.5 375
250 1187.5 312.5 250 1187.5 250 250 1187.5 187.5 250
1187.5 125 250 1187.5 62.5 250 1187.5 0 250 1187.5
500 187.5 1187.5 437.5 187.5 1187.5 375 187.5 1187.5 312.5
187.5 1187.5 250 187.5 1187.5 187.5 187.5 1187.5 125 187.5
1187.5 62.5 187.5 1187.5 0 187.5 1187.5 500 125 1187.5
437.5 125 1187.5 375 125 1187.5 312.5 125 1187.5 250
125 1187.5 187.5 125 1187.5 125 125 1187.5 62.5 125
1187.5 0 125 1187.5 500 62.5 1187.5 437.5 62.5 1187.5
375 62.5 1187.5 312.5 62.5 1187.5 250 62.5 1187.5 187.5
62.5 1187.5 125 62.5 1187.5 62.5 62.5 1187.5 0 62.5
1187.5 500 0 1187.5 437.5 0 1187.5 375 0 1187.5
312.5 0 1187.5 250 0 1187.5 187.5 0 1187.5 125
0 1187.5 62.5 0 1187.5 0 0 1187.5 500 500
1125 437.5 500 1125 375 500 1125 312.5 500 1125
250 500 1125 187.5 500 1125 125 500 1125 62.5
500 1125 0 500 1125 500 437.5 1125 437.5 437.5
1125 375 437.5 1125 312.5 437.5 1125 250 437.5 1125
187.5 437.5 1125 125 437.5 1125 62.5 437.5 1125 0
437.5 1125 500 375 1125 437.5 375 1125 375 375
1125 312.5 375 1125 250 375 1125 187.5 375 1125
125 375 1125 62.5 375 1125 0 375 1125 500
312.5 1125 437.5 312.5 1125 375 312.5 1125 312.5 312.5
1125 250 312.5 1125 187.5 312.5 1125 125 312.5 1125
62.5 312.5 1125 0 312.5 1125 500 250 1125 437.5
250 1125 375 250 1125 312.5 250 1125 250 250
1125 187.5 250 1125 125 250 1125 62.5 250 1125
0 250 1125 500 187.5 1125 437.5 187.5 1125 375
187.5 1125 312.5 187.5 1125 250 187.5 1125 187.5 187.5
1125 125 187.5 1125 62.5 187.5 1125 0 187.5 1125
500 125 1125 437.5 125 1125 375 125 1125 312.5
125 1125 250 125 1125 187.5 125 1125 125 125
1125 62.5 125 1125 0 125 1125 500 62.5 1125
437.5 62.5 1125 375 62.5 1125 312.5 62.5 1125 250
62.5 1125 187.5 62.5 1125 125 62.5 1125 62.5 62.5
1125 0 62.5 1125 500 0 1125 437.5 0 1125
375 0 1125 312.5 0 1125 250 0 1125 187.5
0 1125 125 0 1125 62.5 0 1125 0 0
1125 500 500 1062.5 437.5 500 1062.5 375 500 1062.5
312.5 500 1062.5 250 500 1062.5 187.5 500 1062.5 125
500 1062.5 62.5 500 1062.5 0 500 1062.5 500 437.5
1062.5 437.5 437.5 1062.5 375 437.5 1062.5 312.5 437.5 1062.5
250 437.5 1062.5 187.5 437.5 1062.5 125 437.5 1062.5 62.5
437.5 1062.5 0 437.5 1062.5 500 375 1062.5 437.5 375
1062.5 375 375 1062.5 312.5 375 1062.5 250 375 1062.5
187.5 375 1062.5 125 375 1062.5 62.5 375 1062.5 0
375 1062.5 500 312.5 1062.5 437.5 312.5 1062.5 375 312.5
1062.5 312.5 312.5 1062.5 250 312.5 1062.5 187.5 312.5 1062.5
125 312.5 1062.5 62.5 312.5 1062.5 0 312.5 1062.5 500
250 1062.5 437.5 250 1062.5 375 250 1062.5 312.5 250
1062.5 250 250 1062.5 187.5 250 1062.5 125 250 1062.5
62.5 250 1062.5 0 250 1062.5 500 187.5 1062.5 437.5
187.5 1062.5 375 187.5 1062.5 312.5 187.5 1062.5 250 187.5
1062.5 187.5 187.5 1062.5 125 187.5 1062.5 62.5 187.5 1062.5
0 187.5 1062.5 500 125 1062.5 437.5 125 1062.5 375
125 1062.5 312.5 125 1062.5 250 125 1062.5 187.5 125
1062.5 125 125 1062.5 62.5 125 1062.5 0 125 1062.5
500 62.5 1062.5 437.5 62.5 1062.5 375 62.5 1062.5 312.5
62.5 1062.5 250 62.5 1062.5 187.5 62.5 1062.5 125 62.5
[...]
<PointData>
<DataArray type="Float64" Name="ux" NumberOfComponents="1" format="ascii">
3.06187e-012 -2.71027e-007 -3.54472e-007 -3.68416e-007 -3.29645e-007 -1.96005e-007 -2.38978e-008 8.99998e-008 -3.06187e-012 6.12374e-012
-2.08776e-007 -3.52498e-007 -4.36552e-007 -3.63596e-007 -2.06544e-007 -2.9814e-008 9.11407e-008 -6.12375e-012 6.12375e-012 -4.7113e-008
-3.4775e-007 -5.78414e-007 -3.65786e-007 -2.21444e-007 -1.02998e-007 8.32886e-008 -6.12375e-012 6.12375e-012 5.22043e-008 -3.30422e-007
-6.37935e-007 -3.28769e-007 -2.25686e-007 -1.73953e-007 8.66601e-008 -6.12374e-012 6.12375e-012 9.75274e-008 -2.75701e-007 -6.0965e-007
-3.73537e-007 -1.86318e-007 -6.43317e-008 1.00856e-007 -6.12374e-012 6.12375e-012 1.55747e-007 -1.48486e-007 -5.36243e-007 -3.34565e-007
-4.60661e-008 5.71147e-008 8.36893e-008 -6.12374e-012 6.12375e-012 1.16277e-007 -2.59889e-008 -3.79605e-007 -2.06145e-007 1.0693e-007
1.07915e-007 4.71654e-008 -6.12374e-012 6.12375e-012 -2.87848e-008 -6.88603e-008 -1.86531e-007 -1.00203e-007 7.60956e-008 1.28799e-007
1.16793e-007 -6.12374e-012 3.06187e-012 -8.79449e-008 -1.24701e-007 -1.24306e-007 -6.59764e-008 2.97086e-008 1.31132e-007 1.61464e-007
-3.06187e-012 6.12375e-012 1.1705e-007 6.49978e-008 4.58362e-008 -1.99283e-009 -4.4124e-008 -1.13554e-007 -1.81345e-007 -6.12375e-012
1.22475e-011 1.65096e-007 6.19215e-008 8.15267e-008 2.96222e-008 -3.79839e-008 -8.87539e-008 -2.60183e-007 -1.22475e-011 1.22475e-011
-2.66903e-007 7.04389e-008 4.9022e-007 6.20018e-008 -1.78685e-008 -6.70737e-008 -2.21156e-007 -1.22475e-011 1.22475e-011 -3.15476e-007
6.86423e-008 5.48677e-007 -2.67956e-007 -3.95377e-009 3.30179e-007 -3.00579e-007 -1.22475e-011 1.22475e-011 -3.4155e-007 4.31846e-008
5.61681e-007 1.2181e-007 -2.11924e-008 -6.54886e-008 -2.10662e-007 -1.22475e-011 1.22475e-011 -3.76705e-007 1.65731e-009 5.27649e-007
9.02099e-008 -6.78047e-008 -1.04802e-007 -2.31885e-007 -1.22475e-011 1.22475e-011 -3.39879e-007 -3.9947e-007 4.64636e-007 3.83939e-008
-4.77677e-007 -1.31787e-007 8.01149e-008 -1.22475e-011 1.22475e-011 8.40483e-008 -1.48113e-008 1.90661e-008 -1.41318e-008 -1.00959e-007
-1.25547e-007 -2.27639e-007 -1.22475e-011 6.12375e-012 2.37993e-009 -4.16996e-009 1.0346e-007 -2.29262e-008 -9.30267e-008 -1.17738e-007
-1.59499e-007 -6.12375e-012 6.12375e-012 1.49845e-007 2.25324e-007 2.30118e-007 1.72382e-007 6.90644e-008 -4.2141e-008 -8.76472e-008
-6.12375e-012 1.22475e-011 1.05667e-007 2.3229e-007 2.78309e-007 2.04515e-007 8.48976e-008 -4.36809e-008 -7.75341e-008 -1.22475e-011
1.22475e-011 6.10514e-008 2.28472e-007 3.23997e-007 2.51514e-007 1.10784e-007 9.86588e-009 -6.58153e-008 -1.22475e-011 1.22475e-011
5.83212e-011 2.14926e-007 3.37709e-007 2.8913e-007 1.23638e-007 5.69884e-009 -1.96506e-008 -1.22475e-011 1.22475e-011 -2.93183e-008
1.82439e-007 3.52936e-007 2.6931e-007 9.97512e-008 -7.78919e-009 -7.20372e-008 -1.22475e-011 1.22475e-011 -7.41303e-008 9.40662e-008
2.93049e-007 2.28048e-007 2.58754e-009 -9.15669e-008 -7.21124e-008 -1.22475e-011 1.22475e-011 -8.8058e-008 5.41372e-008 1.43564e-007
9.53135e-008 -6.08854e-008 -1.37675e-007 -9.38351e-008 -1.22475e-011 1.22475e-011 -2.12154e-008 2.94076e-008 1.01746e-007 2.57329e-008
-1.04568e-007 -1.49851e-007 -9.32833e-008 -1.22475e-011 6.12375e-012 3.59903e-008 6.42884e-008 6.12567e-008 1.56901e-008 -7.896e-008
-1.44959e-007 -1.26462e-007 -6.12375e-012 6.12375e-012 1.29642e-007 2.32326e-007 2.7067e-007 2.27722e-007 1.36719e-007 4.41635e-008
-3.62247e-009 -6.12375e-012 1.22475e-011 1.26684e-007 2.31712e-007 2.776e-007 2.37033e-007 1.44791e-007 5.36589e-008 -9.6077e-010
-1.22475e-011 1.22475e-011 1.13796e-007 2.26533e-007 2.90147e-007 2.5543e-007 1.62807e-007 6.36814e-008 9.47135e-009 -1.22475e-011
1.22475e-011 9.62132e-008 2.08982e-007 2.90968e-007 2.59048e-007 1.64318e-007 6.69019e-008 7.71094e-009 -1.22475e-011 1.22475e-011
7.00367e-008 1.78575e-007 2.63735e-007 2.34923e-007 1.34626e-007 4.01527e-008 -1.29295e-009 -1.22475e-011 1.22475e-011 4.37714e-008
1.32277e-007 2.0376e-007 1.72148e-007 7.9612e-008 -1.63241e-009 -2.63692e-008 -1.22475e-011 1.22475e-011 2.73468e-008 8.27938e-008
1.35953e-007 9.93825e-008 1.62489e-008 -4.4104e-008 -4.60361e-008 -1.22475e-011 1.22475e-011 2.38438e-008 6.58265e-008 8.73738e-008
4.94692e-008 -2.34942e-008 -6.86217e-008 -5.77536e-008 -1.22475e-011 6.12375e-012 2.73724e-008 5.94791e-008 7.69378e-008 3.34194e-008
-3.75098e-008 -7.65677e-008 -5.86179e-008 -6.12375e-012 6.12375e-012 1.1091e-007 1.97981e-007 2.36595e-007 2.17355e-007 1.57785e-007
8.87388e-008 3.43785e-008 -6.12375e-012 1.22475e-011 1.09545e-007 1.97098e-007 2.37291e-007 2.19729e-007 1.60563e-007 9.04e-008
3.58962e-008 -1.22475e-011 1.22475e-011 1.04694e-007 1.92242e-007 2.36137e-007 2.22126e-007 1.63271e-007 9.32303e-008 3.69027e-008
-1.22475e-011 1.22475e-011 9.45354e-008 1.79319e-007 2.25191e-007 2.14083e-007 1.56222e-007 8.73558e-008 3.43601e-008 -1.22475e-011
1.22475e-011 7.98846e-008 1.55251e-007 1.98495e-007 1.87313e-007 1.31981e-007 6.89722e-008 2.40757e-008 -1.22475e-011 1.22475e-011
6.21284e-008 1.22839e-007 1.57401e-007 1.44035e-007 9.29716e-008 3.9703e-008 8.7583e-009 -1.22475e-011 1.22475e-011 4.6045e-008
9.16525e-008 1.13884e-007 9.73457e-008 5.15045e-008 9.45585e-009 -7.00649e-009 -1.22475e-011 1.22475e-011 3.6702e-008 7.017e-008
8.41893e-008 6.34441e-008 2.15098e-008 -1.18905e-008 -1.73271e-008 -1.22475e-011 6.12375e-012 3.33705e-008 6.38123e-008 7.35263e-008
5.15959e-008 1.08613e-008 -1.90505e-008 -2.08527e-008 -6.12375e-012 6.12375e-012 8.73646e-008 1.55973e-007 1.90211e-007 1.84599e-007
1.47709e-007 9.64628e-008 4.5744e-008 -6.12375e-012 1.22475e-011 8.64326e-008 1.54654e-007 1.89162e-007 1.83978e-007 1.47385e-007
9.63905e-008 4.56306e-008 -1.22475e-011 1.22475e-011 8.31705e-008 1.49719e-007 1.84422e-007 1.80139e-007 1.44578e-007 9.43296e-008
4.46578e-008 -1.22475e-011 1.22475e-011 7.67895e-008 1.39178e-007 1.72669e-007 1.68937e-007 1.34978e-007 8.72595e-008 4.08219e-008
-1.22475e-011 1.22475e-011 6.70447e-008 1.22236e-007 1.51941e-007 1.47772e-007 1.16113e-007 7.30741e-008 3.32788e-008 -1.22475e-011
1.22475e-011 5.53036e-008 1.0086e-007 1.2457e-007 1.18868e-007 8.99965e-008 5.35167e-008 2.28386e-008 -1.22475e-011 1.22475e-011
4.41679e-008 7.99597e-008 9.72287e-008 8.93678e-008 6.32299e-008 3.35361e-008 1.22801e-008 -1.22475e-011 1.22475e-011 3.62964e-008
6.5271e-008 7.73747e-008 6.7885e-008 4.35773e-008 1.89956e-008 4.62253e-009 -1.22475e-011 6.12375e-012 3.35949e-008 5.99388e-008
7.03177e-008 6.00762e-008 3.64852e-008 1.36954e-008 1.88571e-009 -6.12375e-012 6.12375e-012 6.57408e-008 1.18008e-007 1.46451e-007
1.47224e-007 1.24359e-007 8.69589e-008 4.38979e-008 -6.12375e-012 1.22475e-011 6.49726e-008 1.16717e-007 1.44966e-007 1.45816e-007
1.23192e-007 8.61104e-008 4.34673e-008 -1.22475e-011 1.22475e-011 6.24911e-008 1.12461e-007 1.39921e-007 1.40883e-007 1.18954e-007
8.30372e-008 4.18272e-008 -1.22475e-011 1.22475e-011 5.79825e-008 1.04531e-007 1.30189e-007 1.30989e-007 1.10244e-007 7.65648e-008
3.83891e-008 -1.22475e-011 1.22475e-011 5.15229e-008 9.28985e-008 1.15537e-007 1.15685e-007 9.65113e-008 6.62758e-008 3.2884e-008
-1.22475e-011 1.22475e-011 4.39229e-008 7.90311e-008 9.77426e-008 9.67856e-008 7.93765e-008 5.33671e-008 2.5982e-008 -1.22475e-011
1.22475e-011 3.67033e-008 6.57607e-008 8.04965e-008 7.83074e-008 6.25073e-008 4.06375e-008 1.91726e-008 -1.22475e-011 1.22475e-011
3.15679e-008 5.62237e-008 6.80722e-008 6.48819e-008 5.02343e-008 3.13485e-008 1.42106e-008 -1.22475e-011 6.12375e-012 2.97013e-008
5.27867e-008 6.35472e-008 6.00036e-008 4.57498e-008 2.79689e-008 1.23974e-008 -6.12375e-012 6.12375e-012 4.82778e-008 8.72265e-008
1.09788e-007 1.13012e-007 9.85909e-008 7.14364e-008 3.71405e-008 -6.12375e-012 1.22475e-011 4.76816e-008 8.61623e-008 1.08465e-007
1.11654e-007 9.73916e-008 7.05508e-008 3.66681e-008 -1.22475e-011 1.22475e-011 4.58417e-008 8.28595e-008 1.04329e-007 1.0737e-007
9.35887e-008 6.77188e-008 3.51626e-008 -1.22475e-011 1.22475e-011 4.27046e-008 7.71882e-008 9.71468e-008 9.98494e-008 8.68411e-008
6.26676e-008 3.24637e-008 -1.22475e-011 1.22475e-011 3.84398e-008 6.9427e-008 8.72166e-008 8.93437e-008 7.73348e-008 5.55081e-008
2.86295e-008 -1.22475e-011 1.22475e-011 3.36052e-008 6.05798e-008 7.58119e-008 7.71852e-008 6.62608e-008 4.71349e-008 2.41345e-008
-1.22475e-011 1.22475e-011 2.90972e-008 5.22966e-008 6.50858e-008 6.56867e-008 5.57465e-008 3.91609e-008 1.98481e-008 -1.22475e-011
1.22475e-011 2.58902e-008 4.64016e-008 5.74211e-008 5.74526e-008 4.81923e-008 3.34255e-008 1.67616e-008 -1.22475e-011 6.12375e-012
2.47322e-008 4.42654e-008 5.46451e-008 5.44617e-008 4.54492e-008 3.13372e-008 1.5639e-008 -6.12375e-012 6.12375e-012 3.49741e-008
6.35595e-008 8.08705e-008 8.45972e-008 7.52922e-008 5.56795e-008 2.94035e-008 -6.12375e-012 1.22475e-011 3.45403e-008 6.27696e-008
7.98621e-008 8.35336e-008 7.43334e-008 5.49595e-008 2.90184e-008 -1.22475e-011 1.22475e-011 3.32396e-008 6.03988e-008 7.6827e-008
8.03245e-008 7.14323e-008 5.2778e-008 2.78493e-008 -1.22475e-011 1.22475e-011 3.11152e-008 5.65194e-008 7.18433e-008 7.50322e-008
6.66306e-008 4.91558e-008 2.59074e-008 -1.22475e-011 1.22475e-011 2.83472e-008 5.14508e-008 6.53075e-008 6.80619e-008 6.02811e-008
4.43519e-008 2.33269e-008 -1.22475e-011 1.22475e-011 2.5308e-008 4.58736e-008 5.80929e-008 6.03397e-008 5.32235e-008 3.89979e-008
2.04465e-008 -1.22475e-011 1.22475e-011 2.25299e-008 4.07682e-008 5.14727e-008 5.32359e-008 4.67142e-008 3.40509e-008 1.77815e-008
-1.22475e-011 1.22475e-011 2.05752e-008 3.71732e-008 4.68061e-008 4.82185e-008 4.21105e-008 3.05467e-008 1.58937e-008 -1.22475e-011
6.12375e-012 1.98706e-008 3.58778e-008 4.51224e-008 4.64078e-008 4.04469e-008 2.92803e-008 1.52109e-008 -6.12375e-012 6.12375e-012
2.51312e-008 4.58847e-008 5.88502e-008 6.22419e-008 5.61067e-008 4.20046e-008 2.23828e-008 -6.12375e-012 1.22475e-011 2.48322e-008
4.53359e-008 5.81417e-008 6.14859e-008 5.54178e-008 4.14836e-008 2.21024e-008 -1.22475e-011 1.22475e-011 2.39515e-008 4.3719e-008
5.6053e-008 5.92545e-008 5.3383e-008 3.99425e-008 2.12732e-008 -1.22475e-011 1.22475e-011 2.25529e-008 4.11522e-008 5.27324e-008
5.57018e-008 5.01376e-008 3.74817e-008 1.99497e-008 -1.22475e-011 1.22475e-011 2.07844e-008 3.79032e-008 4.85233e-008 5.11901e-008
4.60089e-008 3.43467e-008 1.82619e-008 -1.22475e-011 1.22475e-011 1.88914e-008 3.44225e-008 4.40075e-008 4.63418e-008 4.15647e-008
3.09674e-008 1.64408e-008 -1.22475e-011 1.22475e-011 1.71924e-008 3.1296e-008 3.99475e-008 4.1977e-008 3.75585e-008 2.79177e-008
1.47962e-008 -1.22475e-011 1.22475e-011 1.60093e-008 2.91202e-008 3.71197e-008 3.89345e-008 3.47633e-008 2.57885e-008 1.36483e-008
-1.22475e-011 6.12375e-012 1.55851e-008 2.834e-008 3.61055e-008 3.78426e-008 3.37599e-008 2.50236e-008 1.32361e-008 -6.12375e-012
6.12375e-012 1.79633e-008 3.29115e-008 4.24532e-008 4.52368e-008 4.11167e-008 3.1019e-008 1.66188e-008 -6.12375e-012 1.22475e-011
1.77652e-008 3.25464e-008 4.19795e-008 4.47283e-008 4.06507e-008 3.06649e-008 1.64275e-008 -1.22475e-011 1.22475e-011 1.71883e-008
3.14833e-008 4.05995e-008 4.32463e-008 3.92923e-008 2.96319e-008 1.58699e-008 -1.22475e-011 1.22475e-011 1.62886e-008 2.98277e-008
3.84495e-008 4.0936e-008 3.71732e-008 2.80196e-008 1.50009e-008 -1.22475e-011 1.22475e-011 1.51746e-008 2.7777e-008 3.57851e-008
3.80708e-008 3.45429e-008 2.60173e-008 1.39211e-008 -1.22475e-011 1.22475e-011 1.40049e-008 2.5623e-008 3.29847e-008 3.5057e-008
3.17742e-008 2.39082e-008 1.27832e-008 -1.22475e-011 1.22475e-011 1.29705e-008 2.37175e-008 3.05064e-008 3.23883e-008 2.93209e-008
2.20384e-008 1.1774e-008 -1.22475e-011 1.22475e-011 1.22568e-008 2.24044e-008 2.87983e-008 3.05481e-008 2.76285e-008 2.07481e-008
1.10784e-008 -1.22475e-011 6.12375e-012 1.20021e-008 2.1936e-008 2.81887e-008 2.98912e-008 2.70242e-008 2.02872e-008 1.083e-008
-6.12375e-012 6.12375e-012 1.27916e-008 2.34941e-008 3.0427e-008 3.25867e-008 2.97799e-008 2.25762e-008 1.2136e-008 -6.12375e-012
1.22475e-011 1.26642e-008 2.32585e-008 3.01205e-008 3.22566e-008 2.94765e-008 2.23449e-008 1.20107e-008 -1.22475e-011 1.22475e-011
1.22958e-008 2.25776e-008 2.92343e-008 3.1302e-008 2.85988e-008 2.16758e-008 1.16485e-008 -1.22475e-011 1.22475e-011 1.17277e-008
2.15306e-008 2.78714e-008 2.98337e-008 2.72485e-008 2.06462e-008 1.10927e-008 -1.22475e-011 1.22475e-011 1.10345e-008 2.02529e-008
2.62082e-008 2.80412e-008 2.55996e-008 1.93887e-008 1.04138e-008 -1.22475e-011 1.22475e-011 1.03168e-008 1.89298e-008 2.44855e-008
2.61841e-008 2.38907e-008 1.80852e-008 9.70989e-009 -1.22475e-011 1.22475e-011 9.68931e-009 1.7773e-008 2.29792e-008 2.45599e-008
2.23957e-008 1.69446e-008 9.09386e-009 -1.22475e-011 1.22475e-011 9.25937e-009 1.69823e-008 2.19495e-008 2.34494e-008 2.13733e-008
1.61646e-008 8.6736e-009 -1.22475e-011 6.12375e-012 9.10651e-009 1.67014e-008 2.15836e-008 2.30547e-008 2.10099e-008 1.58872e-008
8.52427e-009 -6.12375e-012 6.12375e-012 9.08277e-009 1.67101e-008 2.17005e-008 2.33202e-008 2.13879e-008 1.62651e-008 8.76152e-009
-6.12375e-012 1.22475e-011 9.00267e-009 1.65614e-008 2.15067e-008 2.31111e-008 2.11953e-008 1.61181e-008 8.68159e-009 -1.22475e-011
1.22475e-011 8.77196e-009 1.61338e-008 2.09492e-008 2.25095e-008 2.06412e-008 1.56949e-008 8.45186e-009 -1.22475e-011 1.22475e-011
8.41852e-009 1.54818e-008 2.00993e-008 2.15923e-008 1.97963e-008 1.50497e-008 8.10326e-009 -1.22475e-011 1.22475e-011 7.99161e-009
1.46943e-008 1.90729e-008 2.04845e-008 1.87757e-008 1.42705e-008 7.68224e-009 -1.22475e-011 1.22475e-011 7.55406e-009 1.38871e-008
1.80208e-008 1.93489e-008 1.77296e-008 1.34717e-008 7.2506e-009 -1.22475e-011 1.22475e-011 7.17479e-009 1.31874e-008 1.7109e-008
1.83647e-008 1.68227e-008 1.27794e-008 6.87649e-009 -1.22475e-011 1.22475e-011 6.91605e-009 1.27121e-008 1.64896e-008 1.76962e-008
1.62067e-008 1.23091e-008 6.62345e-009 -1.22475e-011 6.12375e-012 6.82433e-009 1.25438e-008 1.62702e-008 1.74593e-008 1.59885e-008
1.21425e-008 6.53389e-009 -6.12375e-012 6.12375e-012 6.43472e-009 1.18509e-008 1.54184e-008 1.66071e-008 1.52669e-008 1.16336e-008
6.27442e-009 -6.12375e-012 1.22475e-011 6.38523e-009 1.17586e-008 1.5298e-008 1.6477e-008 1.51469e-008 1.15419e-008 6.22436e-009
-1.22475e-011 1.22475e-011 6.24306e-009 1.14941e-008 1.49528e-008 1.6104e-008 1.48029e-008 1.12789e-008 6.08105e-009 -1.22475e-011
1.22475e-011 6.02582e-009 1.10932e-008 1.44295e-008 1.55386e-008 1.42815e-008 1.08803e-008 5.86556e-009 -1.22475e-011 1.22475e-011
5.76523e-009 1.06122e-008 1.38021e-008 1.48608e-008 1.36565e-008 1.04026e-008 5.60734e-009 -1.22475e-011 1.22475e-011 5.50005e-009
1.01228e-008 1.31637e-008 1.41712e-008 1.30206e-008 9.91677e-009 5.34469e-009 -1.22475e-011 1.22475e-011 5.27161e-009 9.70112e-009
1.2614e-008 1.35774e-008 1.24731e-008 9.49862e-009 5.11864e-009 -1.22475e-011 1.22475e-011 5.11602e-009 9.41597e-009 1.22423e-008
1.31759e-008 1.2103e-008 9.21605e-009 4.96696e-009 -1.22475e-011 6.12375e-012 5.06096e-009 9.3153e-009 1.2111e-008 1.30341e-008
1.19722e-008 9.1161e-009 4.91345e-009 -6.12375e-012 6.12375e-012 4.55086e-009 8.38628e-009 1.09239e-008 1.17837e-008 1.08493e-008
8.27785e-009 4.46753e-009 -6.12375e-012 1.22475e-011 4.52075e-009 8.32973e-009 1.08501e-008 1.17038e-008 1.07756e-008 8.22152e-009
4.43654e-009 -1.22475e-011 1.22475e-011 4.43435e-009 8.16817e-009 1.06389e-008 1.14754e-008 1.05648e-008 8.06009e-009 4.34814e-009
-1.22475e-011 1.22475e-011 4.30215e-009 7.92407e-009 1.032e-008 1.11306e-008 1.02466e-008 7.81657e-009 4.21644e-009 -1.22475e-011
1.22475e-011 4.1443e-009 7.63258e-009 9.93957e-009 1.07193e-008 9.86702e-009 7.52639e-009 4.05949e-009 -1.22475e-011 1.22475e-011
3.98446e-009 7.33749e-009 9.55446e-009 1.03031e-008 9.48301e-009 7.23283e-009 3.90075e-009 -1.22475e-011 1.22475e-011 3.84734e-009
7.08433e-009 9.22435e-009 9.94637e-009 9.15397e-009 6.98149e-009 3.76484e-009 -1.22475e-011 1.22475e-011 3.7538e-009 6.91365e-009
9.00194e-009 9.70605e-009 8.93231e-009 6.81229e-009 3.67443e-009 -1.22475e-011 6.12375e-012 3.72073e-009 6.85354e-009 8.92349e-009
9.62128e-009 8.85413e-009 6.75252e-009 3.64263e-009 -6.12375e-012 6.12375e-012 3.21497e-009 5.9257e-009 7.72435e-009 8.34023e-009
7.68634e-009 5.86902e-009 3.16823e-009 -6.12375e-012 1.22475e-011 3.19692e-009 5.8914e-009 7.67956e-009 8.29177e-009 7.64157e-009
5.83478e-009 3.14918e-009 -1.22475e-011 1.22475e-011 3.1451e-009 5.79367e-009 7.55162e-009 8.1533e-009 7.51366e-009 5.73669e-009
3.09502e-009 -1.22475e-011 1.22475e-011 3.06533e-009 5.64633e-009 7.35895e-009 7.94483e-009 7.32112e-009 5.5892e-009 3.01524e-009
-1.22475e-011 1.22475e-011 2.97035e-009 5.47088e-009 7.12986e-009 7.69702e-009 7.09232e-009 5.4142e-009 2.92055e-009 -1.22475e-011
1.22475e-011 2.87448e-009 5.29385e-009 6.89876e-009 7.44716e-009 6.86173e-009 5.23787e-009 2.82519e-009 -1.22475e-011 1.22475e-011
2.79245e-009 5.14237e-009 6.7013e-009 7.23373e-009 6.66483e-009 5.08751e-009 2.74387e-009 -1.22475e-011 1.22475e-011 2.73616e-009
5.04045e-009 6.56857e-009 7.0903e-009 6.53254e-009 4.9866e-009 2.69038e-009 -1.22475e-011 6.12375e-012 2.71625e-009 5.00464e-009
6.52182e-009 7.03978e-009 6.48594e-009 4.95096e-009 2.67163e-009 -6.12375e-012 6.12375e-012 2.27053e-009 4.18432e-009 5.45642e-009
5.8948e-009 5.43573e-009 4.15213e-009 2.24111e-009 -6.12375e-012 1.22475e-011 2.25989e-009 4.16369e-009 5.42947e-009 5.86561e-009
5.40875e-009 4.13149e-009 2.22942e-009 -1.22475e-011 1.22475e-011 2.22925e-009 4.10508e-009 5.35258e-009 5.78232e-009 5.33174e-009
4.07231e-009 2.1963e-009 -1.22475e-011 1.22475e-011 2.18147e-009 4.01679e-009 5.23698e-009 5.65716e-009 5.21607e-009 3.98359e-009
2.14829e-009 -1.22475e-011 1.22475e-011 2.12464e-009 3.91179e-009 5.09983e-009 5.50874e-009 5.07897e-009 3.8787e-009 2.09152e-009
-1.22475e-011 1.22475e-011 2.06739e-009 3.80606e-009 4.9618e-009 5.35948e-009 4.9412e-009 3.77333e-009 2.03453e-009 -1.22475e-011
1.22475e-011 2.01846e-009 3.71571e-009 4.8441e-009 5.23227e-009 4.82386e-009 3.6838e-009 1.98611e-009 -1.22475e-011 1.22475e-011
1.98447e-009 3.65496e-009 4.76512e-009 5.14694e-009 4.74517e-009 3.62386e-009 1.95478e-009 -1.22475e-011 6.12375e-012 1.97243e-009
3.63368e-009 4.73733e-009 5.11691e-009 4.71748e-009 3.60268e-009 1.94385e-009 -6.12375e-012 6.12375e-012 1.60473e-009 2.95583e-009
3.85476e-009 4.16558e-009 3.84222e-009 2.93517e-009 1.58345e-009 -6.12375e-012 1.22475e-011 1.59858e-009 2.94351e-009 3.83865e-009
4.14812e-009 3.82606e-009 2.9228e-009 1.57624e-009 -1.22475e-011 1.22475e-011 1.58079e-009 2.90861e-009 3.79273e-009 4.09832e-009
3.77998e-009 2.88728e-009 1.55592e-009 -1.22475e-011 1.22475e-011 1.55235e-009 2.85605e-009 3.72378e-009 4.0236e-009 3.71086e-009
2.83416e-009 1.52717e-009 -1.22475e-011 1.22475e-011 1.51851e-009 2.79351e-009 3.64207e-009 3.93513e-009 3.62911e-009 2.77159e-009
1.49329e-009 -1.22475e-011 1.22475e-011 1.48444e-009 2.73061e-009 3.55993e-009 3.84632e-009 3.54714e-009 2.7089e-009 1.45939e-009
-1.22475e-011 1.22475e-011 1.45532e-009 2.67683e-009 3.48999e-009 3.77077e-009 3.47747e-009 2.65583e-009 1.43069e-009 -1.22475e-011
1.22475e-011 1.43464e-009 2.64066e-009 3.4431e-009 3.72014e-009 3.43082e-009 2.6204e-009 1.41262e-009 -1.22475e-011 6.12375e-012
1.42729e-009 2.62804e-009 3.42661e-009 3.70234e-009 3.41441e-009 2.60785e-009 1.40635e-009 -6.12375e-012 6.12375e-012 1.13634e-009
2.0912e-009 2.72668e-009 2.94662e-009 2.71797e-009 2.07595e-009 1.1189e-009 -6.12375e-012 1.22475e-011 1.1329e-009 2.08387e-009
2.7171e-009 2.93622e-009 2.70833e-009 2.06857e-009 1.11438e-009 -1.22475e-011 1.22475e-011 1.12284e-009 2.06325e-009 2.68981e-009
2.90659e-009 2.68086e-009 2.04728e-009 1.10176e-009 -1.22475e-011 1.22475e-011 1.106e-009 2.03212e-009 2.64886e-009 2.86215e-009
2.6397e-009 2.01556e-009 1.08459e-009 -1.22475e-011 1.22475e-011 1.08593e-009 1.99501e-009 2.60035e-009 2.8096e-009 2.59111e-009
1.97836e-009 1.06444e-009 -1.22475e-011 1.22475e-011 1.0657e-009 1.95767e-009 2.55161e-009 2.75691e-009 2.5425e-009 1.94118e-009