<VTKFile type="UnstructuredGrid" version="1.0">
<UnstructuredGrid>
<FieldData>
<DataArray type="Float64" Name="TIME" NumberOfTuples="1" format="ascii" RangeMin="2.3" RangeMax="2.3">
2.3
</DataArray>
</FieldData>
<Piece NumberOfPoints="164" NumberOfCells="120">
<Points>
<DataArray type="Float64" NumberOfComponents="3" format="ascii">
-0.939693 -0.34202 0 -0.563816 -0.205212 0 0.563816 0.205212 0 0.939693
0.34202 0 -0.939693 -0.34202 0.15 -0.563816 -0.205212 0.15 0.563816 0.205212
0.15 0.939693 0.34202 0.15 -0.892708 -0.324919 0 -0.845723 -0.307818 0
-0.798739 -0.290717 0 -0.751754 -0.273616 0 -0.704769 -0.256515 0 -0.657785
-0.239414 0 -0.6108 -0.222313 0 -0.516831 -0.188111 0 -0.469846 -0.17101
0 -0.422862 -0.153909 0 -0.375877 -0.136808 0 -0.328892 -0.119707 0
-0.281908 -0.102606 0 -0.234923 -0.085505 0 -0.187939 -0.068404 0 -0.140954
-0.051303 0 -0.0939693 -0.034202 0 -0.0469846 -0.017101 0 -1.46472e-12 -5.33129e-13
0 0.0469846 0.017101 0 0.0939693 0.034202 0 0.140954 0.051303 0
0.187939 0.068404 0 0.234923 0.085505 0 0.281908 0.102606 0 0.328892
0.119707 0 0.375877 0.136808 0 0.422862 0.153909 0 0.469846 0.17101
0 0.516831 0.188111 0 0.6108 0.222313 0 0.657785 0.239414 0
0.704769 0.256515 0 0.751754 0.273616 0 0.798739 0.290717 0 0.845723
0.307818 0 0.892708 0.324919 0 -0.892708 -0.324919 0.15 -0.845723 -0.307818
0.15 -0.798739 -0.290717 0.15 -0.751754 -0.273616 0.15 -0.704769 -0.256515 0.15
-0.657785 -0.239414 0.15 -0.6108 -0.222313 0.15 -0.939693 -0.34202 0.05 -0.939693
-0.34202 0.1 -0.563816 -0.205212 0.05 -0.563816 -0.205212 0.1 -0.516831 -0.188111
0.15 -0.469846 -0.17101 0.15 -0.422862 -0.153909 0.15 -0.375877 -0.136808 0.15
-0.328892 -0.119707 0.15 -0.281908 -0.102606 0.15 -0.234923 -0.085505 0.15 -0.187939
-0.068404 0.15 -0.140954 -0.051303 0.15 -0.0939693 -0.034202 0.15 -0.0469846 -0.017101
0.15 -1.46472e-12 -5.33129e-13 0.15 0.0469846 0.017101 0.15 0.0939693 0.034202 0.15
0.140954 0.051303 0.15 0.187939 0.068404 0.15 0.234923 0.085505 0.15 0.281908
0.102606 0.15 0.328892 0.119707 0.15 0.375877 0.136808 0.15 0.422862 0.153909
0.15 0.469846 0.17101 0.15 0.516831 0.188111 0.15 0.563816 0.205212 0.05
0.563816 0.205212 0.1 0.6108 0.222313 0.15 0.657785 0.239414 0.15 0.704769
0.256515 0.15 0.751754 0.273616 0.15 0.798739 0.290717 0.15 0.845723 0.307818
0.15 0.892708 0.324919 0.15 0.939693 0.34202 0.05 0.939693 0.34202 0.1
-0.892708 -0.324919 0.05 -0.892708 -0.324919 0.1 -0.845723 -0.307818 0.05 -0.845723
-0.307818 0.1 -0.798739 -0.290717 0.05 -0.798739 -0.290717 0.1 -0.751754 -0.273616
0.05 -0.751754 -0.273616 0.1 -0.704769 -0.256515 0.05 -0.704769 -0.256515 0.1
-0.657785 -0.239414 0.05 -0.657785 -0.239414 0.1 -0.6108 -0.222313 0.05 -0.6108
-0.222313 0.1 -0.516831 -0.188111 0.05 -0.516831 -0.188111 0.1 -0.469846 -0.17101
0.05 -0.469846 -0.17101 0.1 -0.422862 -0.153909 0.05 -0.422862 -0.153909 0.1
-0.375877 -0.136808 0.05 -0.375877 -0.136808 0.1 -0.328892 -0.119707 0.05 -0.328892
-0.119707 0.1 -0.281908 -0.102606 0.05 -0.281908 -0.102606 0.1 -0.234923 -0.085505
0.05 -0.234923 -0.085505 0.1 -0.187939 -0.068404 0.05 -0.187939 -0.068404 0.1
-0.140954 -0.051303 0.05 -0.140954 -0.051303 0.1 -0.0939693 -0.034202 0.05 -0.0939693
-0.034202 0.1 -0.0469846 -0.017101 0.05 -0.0469846 -0.017101 0.1 -1.46472e-12 -5.33129e-13
0.05 -1.46472e-12 -5.33129e-13 0.1 0.0469846 0.017101 0.05 0.0469846 0.017101 0.1
0.0939693 0.034202 0.05 0.0939693 0.034202 0.1 0.140954 0.051303 0.05 0.140954
0.051303 0.1 0.187939 0.068404 0.05 0.187939 0.068404 0.1 0.234923 0.085505
0.05 0.234923 0.085505 0.1 0.281908 0.102606 0.05 0.281908 0.102606 0.1
0.328892 0.119707 0.05 0.328892 0.119707 0.1 0.375877 0.136808 0.05 0.375877
0.136808 0.1 0.422862 0.153909 0.05 0.422862 0.153909 0.1 0.469846 0.17101
0.05 0.469846 0.17101 0.1 0.516831 0.188111 0.05 0.516831 0.188111 0.1
0.6108 0.222313 0.05 0.6108 0.222313 0.1 0.657785 0.239414 0.05 0.657785
0.239414 0.1 0.704769 0.256515 0.05 0.704769 0.256515 0.1 0.751754 0.273616
0.05 0.751754 0.273616 0.1 0.798739 0.290717 0.05 0.798739 0.290717 0.1
0.845723 0.307818 0.05 0.845723 0.307818 0.1 0.892708 0.324919 0.05 0.892708
0.324919 0.1 </DataArray>
</Points>
<PointData>
<DataArray type="Float64" Name="val2" NumberOfComponents="1" format="ascii">
0 0 0 0 0.15 0.15 0.15 0.15 0 0
0 0 0 0 0 0 0 0 0 0
0 0 0 0 0 0 0 0 0 0
0 0 0 0 0 0 0 0 0 0
0 0 0 0 0 0.15 0.15 0.15 0.15 0.15
0.15 0.15 0.05 0.1 0.05 0.1 0.15 0.15 0.15 0.15
0.15 0.15 0.15 0.15 0.15 0.15 0.15 0.15 0.15 0.15
0.15 0.15 0.15 0.15 0.15 0.15 0.15 0.15 0.15 0.05
0.1 0.15 0.15 0.15 0.15 0.15 0.15 0.15 0.05 0.1
0.05 0.1 0.05 0.1 0.05 0.1 0.05 0.1 0.05 0.1
0.05 0.1 0.05 0.1 0.05 0.1 0.05 0.1 0.05 0.1
0.05 0.1 0.05 0.1 0.05 0.1 0.05 0.1 0.05 0.1
0.05 0.1 0.05 0.1 0.05 0.1 0.05 0.1 0.05 0.1
0.05 0.1 0.05 0.1 0.05 0.1 0.05 0.1 0.05 0.1
0.05 0.1 0.05 0.1 0.05 0.1 0.05 0.1 0.05 0.1
0.05 0.1 0.05 0.1 0.05 0.1 0.05 0.1 0.05 0.1
0.05 0.1 0.05 0.1 </DataArray>
<DataArray type="Float64" Name="val1" NumberOfComponents="1" format="ascii">
1e+100 1e+100 1e+100 1e+100 1e+100 1e+100 1e+100 1e+100 1e+100 1e+100
1e+100 1e+100 1e+100 1e+100 1e+100 1e+100 1e+100 1e+100 1e+100 1e+100
1e+100 1e+100 1e+100 1e+100 1e+100 1e+100 1e+100 1e+100 1e+100 1e+100
1e+100 1e+100 1e+100 1e+100 1e+100 1e+100 1e+100 1e+100 1e+100 1e+100
1e+100 1e+100 1e+100 1e+100 1e+100 1e+100 1e+100 1e+100 1e+100 1e+100
1e+100 1e+100 1e+100 1e+100 1e+100 1e+100 1e+100 1e+100 1e+100 1e+100
1e+100 1e+100 1e+100 1e+100 1e+100 1e+100 1e+100 1e+100 1e+100 1e+100
1e+100 1e+100 1e+100 1e+100 1e+100 1e+100 1e+100 1e+100 1e+100 1e+100
1e+100 1e+100 1e+100 1e+100 1e+100 1e+100 1e+100 1e+100 1e+100 1e+100
1e+100 1e+100 1e+100 1e+100 1e+100 1e+100 1e+100 1e+100 1e+100 1e+100
1e+100 1e+100 1e+100 1e+100 1e+100 1e+100 1e+100 1e+100 1e+100 1e+100
1e+100 1e+100 1e+100 1e+100 1e+100 1e+100 1e+100 1e+100 1e+100 1e+100
1e+100 1e+100 1e+100 1e+100 1e+100 1e+100 1e+100 1e+100 1e+100 1e+100
1e+100 1e+100 1e+100 1e+100 1e+100 1e+100 1e+100 1e+100 1e+100 1e+100
1e+100 1e+100 1e+100 1e+100 1e+100 1e+100 1e+100 1e+100 1e+100 1e+100
1e+100 1e+100 1e+100 1e+100 1e+100 1e+100 1e+100 1e+100 1e+100 1e+100
1e+100 1e+100 1e+100 1e+100 </DataArray>
</PointData>
<Cells>
<DataArray type="Int64" Name="connectivity" format="ascii">
0 8 90 52 52 90 91 53 53 91
45 4 8 9 92 90 90 92 93 91
91 93 46 45 9 10 94 92 92 94
95 93 93 95 47 46 10 11 96 94
94 96 97 95 95 97 48 47 11 12
98 96 96 98 99 97 97 99 49 48
12 13 100 98 98 100 101 99 99 101
50 49 13 14 102 100 100 102 103 101
101 103 51 50 14 1 54 102 102 54
55 103 103 55 5 51 1 15 104 54
54 104 105 55 55 105 56 5 15 16
106 104 104 106 107 105 105 107 57 56
16 17 108 106 106 108 109 107 107 109
58 57 17 18 110 108 108 110 111 109
109 111 59 58 18 19 112 110 110 112
113 111 111 113 60 59 19 20 114 112
112 114 115 113 113 115 61 60 20 21
116 114 114 116 117 115 115 117 62 61
21 22 118 116 116 118 119 117 117 119
63 62 22 23 120 118 118 120 121 119
119 121 64 63 23 24 122 120 120 122
123 121 121 123 65 64 24 25 124 122
122 124 125 123 123 125 66 65 25 26
126 124 124 126 127 125 125 127 67 66
26 27 128 126 126 128 129 127 127 129
68 67 27 28 130 128 128 130 131 129
129 131 69 68 28 29 132 130 130 132
133 131 131 133 70 69 29 30 134 132
132 134 135 133 133 135 71 70 30 31
136 134 134 136 137 135 135 137 72 71
31 32 138 136 136 138 139 137 137 139
73 72 32 33 140 138 138 140 141 139
139 141 74 73 33 34 142 140 140 142
143 141 141 143 75 74 34 35 144 142
142 144 145 143 143 145 76 75 35 36
146 144 144 146 147 145 145 147 77 76
36 37 148 146 146 148 149 147 147 149
78 77 37 2 79 148 148 79 80 149
149 80 6 78 2 38 150 79 79 150
151 80 80 151 81 6 38 39 152 150
150 152 153 151 151 153 82 81 39 40
154 152 152 154 155 153 153 155 83 82
40 41 156 154 154 156 157 155 155 157
84 83 41 42 158 156 156 158 159 157
157 159 85 84 42 43 160 158 158 160
161 159 159 161 86 85 43 44 162 160
160 162 163 161 161 163 87 86 44 3
88 162 162 88 89 163 163 89 7 87
</DataArray>
<DataArray type="Int8" Name="types" format="ascii" RangeMin="9" RangeMax="9">
9 9 9 9 9 9 9 9 9 9
9 9 9 9 9 9 9 9 9 9
9 9 9 9 9 9 9 9 9 9
9 9 9 9 9 9 9 9 9 9
9 9 9 9 9 9 9 9 9 9
9 9 9 9 9 9 9 9 9 9
9 9 9 9 9 9 9 9 9 9
9 9 9 9 9 9 9 9 9 9
9 9 9 9 9 9 9 9 9 9
9 9 9 9 9 9 9 9 9 9
9 9 9 9 9 9 9 9 9 9
9 9 9 9 9 9 9 9 9 9
</DataArray>
<DataArray type="Int64" Name="offsets" format="ascii" RangeMin="4" RangeMax="480">
4 8 12 16 20 24 28 32 36 40
44 48 52 56 60 64 68 72 76 80
84 88 92 96 100 104 108 112 116 120
124 128 132 136 140 144 148 152 156 160
164 168 172 176 180 184 188 192 196 200
204 208 212 216 220 224 228 232 236 240
244 248 252 256 260 264 268 272 276 280
284 288 292 296 300 304 308 312 316 320
324 328 332 336 340 344 348 352 356 360
364 368 372 376 380 384 388 392 396 400
404 408 412 416 420 424 428 432 436 440
444 448 452 456 460 464 468 472 476 480
</DataArray>
</Cells>
<CellData>
<DataArray type="Float64" Name="val4" NumberOfComponents="3" format="ascii">
-0.9162 -0.33347 0.025
-0.9162 -0.33347 0.075
-0.9162 -0.33347 0.125
-0.869216 -0.316369 0.025
-0.869216 -0.316369 0.075
-0.869216 -0.316369 0.125
-0.822231 -0.299268 0.025
-0.822231 -0.299268 0.075
-0.822231 -0.299268 0.125
-0.775246 -0.282167 0.025
-0.775246 -0.282167 0.075
-0.775246 -0.282167 0.125
-0.728262 -0.265066 0.025
-0.728262 -0.265066 0.075
-0.728262 -0.265066 0.125
-0.681277 -0.247965 0.025
-0.681277 -0.247965 0.075
-0.681277 -0.247965 0.125
-0.634293 -0.230864 0.025
-0.634293 -0.230864 0.075
-0.634293 -0.230864 0.125
-0.587308 -0.213763 0.025
-0.587308 -0.213763 0.075
-0.587308 -0.213763 0.125
-0.540323 -0.196662 0.025
-0.540323 -0.196662 0.075
-0.540323 -0.196662 0.125
-0.493339 -0.179561 0.025
-0.493339 -0.179561 0.075
-0.493339 -0.179561 0.125
-0.446354 -0.16246 0.025
-0.446354 -0.16246 0.075
-0.446354 -0.16246 0.125
-0.399369 -0.145359 0.025
-0.399369 -0.145359 0.075
-0.399369 -0.145359 0.125
-0.352385 -0.128258 0.025
-0.352385 -0.128258 0.075
-0.352385 -0.128258 0.125
-0.3054 -0.111157 0.025
-0.3054 -0.111157 0.075
-0.3054 -0.111157 0.125
-0.258415 -0.0940555 0.025
-0.258415 -0.0940555 0.075
-0.258415 -0.0940555 0.125
-0.211431 -0.0769545 0.025
-0.211431 -0.0769545 0.075
-0.211431 -0.0769545 0.125
-0.164446 -0.0598535 0.025
-0.164446 -0.0598535 0.075
-0.164446 -0.0598535 0.125
-0.117462 -0.0427525 0.025
-0.117462 -0.0427525 0.075
-0.117462 -0.0427525 0.125
-0.0704769 -0.0256515 0.025
-0.0704769 -0.0256515 0.075
-0.0704769 -0.0256515 0.125
-0.0234923 -0.0085505 0.025
-0.0234923 -0.0085505 0.075
-0.0234923 -0.0085505 0.125
0.0234923 0.0085505 0.025
0.0234923 0.0085505 0.075
0.0234923 0.0085505 0.125
0.0704769 0.0256515 0.025
0.0704769 0.0256515 0.075
0.0704769 0.0256515 0.125
0.117462 0.0427525 0.025
0.117462 0.0427525 0.075
0.117462 0.0427525 0.125
0.164446 0.0598535 0.025
0.164446 0.0598535 0.075
0.164446 0.0598535 0.125
0.211431 0.0769545 0.025
0.211431 0.0769545 0.075
0.211431 0.0769545 0.125
0.258415 0.0940555 0.025
0.258415 0.0940555 0.075
0.258415 0.0940555 0.125
0.3054 0.111157 0.025
0.3054 0.111157 0.075
0.3054 0.111157 0.125
0.352385 0.128258 0.025
0.352385 0.128258 0.075
0.352385 0.128258 0.125
0.399369 0.145359 0.025
0.399369 0.145359 0.075
0.399369 0.145359 0.125
0.446354 0.16246 0.025
0.446354 0.16246 0.075
0.446354 0.16246 0.125
0.493339 0.179561 0.025
0.493339 0.179561 0.075
0.493339 0.179561 0.125
0.540323 0.196662 0.025
0.540323 0.196662 0.075
0.540323 0.196662 0.125
0.587308 0.213763 0.025
0.587308 0.213763 0.075
0.587308 0.213763 0.125
0.634293 0.230864 0.025
0.634293 0.230864 0.075
0.634293 0.230864 0.125
0.681277 0.247965 0.025
0.681277 0.247965 0.075
0.681277 0.247965 0.125
0.728262 0.265066 0.025
0.728262 0.265066 0.075
0.728262 0.265066 0.125
0.775246 0.282167 0.025
0.775246 0.282167 0.075
0.775246 0.282167 0.125
0.822231 0.299268 0.025
0.822231 0.299268 0.075
0.822231 0.299268 0.125
0.869216 0.316369 0.025
0.869216 0.316369 0.075
0.869216 0.316369 0.125
0.9162 0.33347 0.025
0.9162 0.33347 0.075
0.9162 0.33347 0.125
</DataArray>
<DataArray type="Float64" Name="val4_0" NumberOfComponents="1" format="ascii">
-0.9162 -0.9162 -0.9162 -0.869216 -0.869216 -0.869216 -0.822231 -0.822231 -0.822231 -0.775246
-0.775246 -0.775246 -0.728262 -0.728262 -0.728262 -0.681277 -0.681277 -0.681277 -0.634293 -0.634293
-0.634293 -0.587308 -0.587308 -0.587308 -0.540323 -0.540323 -0.540323 -0.493339 -0.493339 -0.493339
-0.446354 -0.446354 -0.446354 -0.399369 -0.399369 -0.399369 -0.352385 -0.352385 -0.352385 -0.3054
-0.3054 -0.3054 -0.258415 -0.258415 -0.258415 -0.211431 -0.211431 -0.211431 -0.164446 -0.164446
-0.164446 -0.117462 -0.117462 -0.117462 -0.0704769 -0.0704769 -0.0704769 -0.0234923 -0.0234923 -0.0234923
0.0234923 0.0234923 0.0234923 0.0704769 0.0704769 0.0704769 0.117462 0.117462 0.117462 0.164446
0.164446 0.164446 0.211431 0.211431 0.211431 0.258415 0.258415 0.258415 0.3054 0.3054
0.3054 0.352385 0.352385 0.352385 0.399369 0.399369 0.399369 0.446354 0.446354 0.446354
0.493339 0.493339 0.493339 0.540323 0.540323 0.540323 0.587308 0.587308 0.587308 0.634293
0.634293 0.634293 0.681277 0.681277 0.681277 0.728262 0.728262 0.728262 0.775246 0.775246
0.775246 0.822231 0.822231 0.822231 0.869216 0.869216 0.869216 0.9162 0.9162 0.9162
</DataArray>
<DataArray type="Float64" Name="val4_1" NumberOfComponents="1" format="ascii">
-0.33347 -0.33347 -0.33347 -0.316369 -0.316369 -0.316369 -0.299268 -0.299268 -0.299268 -0.282167
-0.282167 -0.282167 -0.265066 -0.265066 -0.265066 -0.247965 -0.247965 -0.247965 -0.230864 -0.230864
-0.230864 -0.213763 -0.213763 -0.213763 -0.196662 -0.196662 -0.196662 -0.179561 -0.179561 -0.179561
-0.16246 -0.16246 -0.16246 -0.145359 -0.145359 -0.145359 -0.128258 -0.128258 -0.128258 -0.111157
-0.111157 -0.111157 -0.0940555 -0.0940555 -0.0940555 -0.0769545 -0.0769545 -0.0769545 -0.0598535 -0.0598535
-0.0598535 -0.0427525 -0.0427525 -0.0427525 -0.0256515 -0.0256515 -0.0256515 -0.0085505 -0.0085505 -0.0085505
0.0085505 0.0085505 0.0085505 0.0256515 0.0256515 0.0256515 0.0427525 0.0427525 0.0427525 0.0598535
0.0598535 0.0598535 0.0769545 0.0769545 0.0769545 0.0940555 0.0940555 0.0940555 0.111157 0.111157
0.111157 0.128258 0.128258 0.128258 0.145359 0.145359 0.145359 0.16246 0.16246 0.16246
0.179561 0.179561 0.179561 0.196662 0.196662 0.196662 0.213763 0.213763 0.213763 0.230864
0.230864 0.230864 0.247965 0.247965 0.247965 0.265066 0.265066 0.265066 0.282167 0.282167
0.282167 0.299268 0.299268 0.299268 0.316369 0.316369 0.316369 0.33347 0.33347 0.33347
</DataArray>
<DataArray type="Float64" Name="val4_2" NumberOfComponents="1" format="ascii">
0.025 0.075 0.125 0.025 0.075 0.125 0.025 0.075 0.125 0.025
0.075 0.125 0.025 0.075 0.125 0.025 0.075 0.125 0.025 0.075
0.125 0.025 0.075 0.125 0.025 0.075 0.125 0.025 0.075 0.125
0.025 0.075 0.125 0.025 0.075 0.125 0.025 0.075 0.125 0.025
0.075 0.125 0.025 0.075 0.125 0.025 0.075 0.125 0.025 0.075
0.125 0.025 0.075 0.125 0.025 0.075 0.125 0.025 0.075 0.125
0.025 0.075 0.125 0.025 0.075 0.125 0.025 0.075 0.125 0.025
0.075 0.125 0.025 0.075 0.125 0.025 0.075 0.125 0.025 0.075
0.125 0.025 0.075 0.125 0.025 0.075 0.125 0.025 0.075 0.125
0.025 0.075 0.125 0.025 0.075 0.125 0.025 0.075 0.125 0.025
0.075 0.125 0.025 0.075 0.125 0.025 0.075 0.125 0.025 0.075
0.125 0.025 0.075 0.125 0.025 0.075 0.125 0.025 0.075 0.125
</DataArray>
<DataArray type="Float64" Name="mat" NumberOfComponents="1" format="ascii">
1e+100 1e+100 1e+100 1e+100 1e+100 1e+100 1e+100 1e+100 1e+100 1e+100
1e+100 1e+100 1e+100 1e+100 1e+100 1e+100 1e+100 1e+100 1e+100 1e+100
1e+100 1e+100 1e+100 1e+100 1e+100 1e+100 1e+100 1e+100 1e+100 1e+100
1e+100 1e+100 1e+100 1e+100 1e+100 1e+100 1e+100 1e+100 1e+100 1e+100
1e+100 1e+100 1e+100 1e+100 1e+100 1e+100 1e+100 1e+100 1e+100 1e+100
1e+100 1e+100 1e+100 1e+100 1e+100 1e+100 1e+100 1e+100 1e+100 1e+100
1e+100 1e+100 1e+100 1e+100 1e+100 1e+100 1e+100 1e+100 1e+100 1e+100
1e+100 1e+100 1e+100 1e+100 1e+100 1e+100 1e+100 1e+100 1e+100 1e+100
1e+100 1e+100 1e+100 1e+100 1e+100 1e+100 1e+100 1e+100 1e+100 1e+100
1e+100 1e+100 1e+100 1e+100 1e+100 1e+100 1e+100 1e+100 1e+100 1e+100
1e+100 1e+100 1e+100 1e+100 1e+100 1e+100 1e+100 1e+100 1e+100 1e+100
1e+100 1e+100 1e+100 1e+100 1e+100 1e+100 1e+100 1e+100 1e+100 1e+100
</DataArray>
<DataArray type="Float64" Name="val3" NumberOfComponents="1" format="ascii">
1e+100 1e+100 1e+100 1e+100 1e+100 1e+100 1e+100 1e+100 1e+100 1e+100
1e+100 1e+100 1e+100 1e+100 1e+100 1e+100 1e+100 1e+100 1e+100 1e+100
1e+100 1e+100 1e+100 1e+100 1e+100 1e+100 1e+100 1e+100 1e+100 1e+100
1e+100 1e+100 1e+100 1e+100 1e+100 1e+100 1e+100 1e+100 1e+100 1e+100
1e+100 1e+100 1e+100 1e+100 1e+100 1e+100 1e+100 1e+100 1e+100 1e+100
1e+100 1e+100 1e+100 1e+100 1e+100 1e+100 1e+100 1e+100 1e+100 1e+100
1e+100 1e+100 1e+100 1e+100 1e+100 1e+100 1e+100 1e+100 1e+100 1e+100
1e+100 1e+100 1e+100 1e+100 1e+100 1e+100 1e+100 1e+100 1e+100 1e+100
1e+100 1e+100 1e+100 1e+100 1e+100 1e+100 1e+100 1e+100 1e+100 1e+100
1e+100 1e+100 1e+100 1e+100 1e+100 1e+100 1e+100 1e+100 1e+100 1e+100
1e+100 1e+100 1e+100 1e+100 1e+100 1e+100 1e+100 1e+100 1e+100 1e+100
1e+100 1e+100 1e+100 1e+100 1e+100 1e+100 1e+100 1e+100 1e+100 1e+100
</DataArray>
</CellData>
</Piece>
</UnstructuredGrid>
</VTKFile>
