# vtk DataFile Version 2.0
domain, Created by Gmsh 4.14.0 
ASCII
DATASET UNSTRUCTURED_GRID
POINTS 148 double
0 0 0
0.5 0 0
0.5 1 0
0 1 0
0 0 1
0.5 0 1
0.5 1 1
0 1 1
0.5 0 0
1 0 0
1 1 0
0.5 1 0
0.5 0 1
1 0 1
1 1 1
0.5 1 1
0.5 0.25 0
0.5 0.5 0
0.5 0.75 0
0 0.75 0
0 0.5 0
0 0.25 0
0 0 0.25
0 0 0.5
0 0 0.75
0.5 0 0.25
0.5 0 0.5
0.5 0 0.75
0.5 1 0.25
0.5 1 0.5
0.5 1 0.75
0.5 0.25 1
0.5 0.5 1
0.5 0.75 1
0 1 0.25
0 1 0.5
0 1 0.75
0 0.75 1
0 0.5 1
0 0.25 1
1 0.1666666666666667 0
1 0.3333333333333333 0
1 0.5 0
1 0.6666666666666666 0
1 0.8333333333333333 0
0.5 0.8333333333333334 0
0.5 0.6666666666666667 0
0.5 0.5 0
0.5 0.3333333333333334 0
0.5 0.1666666666666667 0
0.5 0 0.1666666666666667
0.5 0 0.3333333333333333
0.5 0 0.5
0.5 0 0.6666666666666666
0.5 0 0.8333333333333334
1 0 0.1666666666666667
1 0 0.3333333333333333
1 0 0.5
1 0 0.6666666666666666
1 0 0.8333333333333334
1 1 0.1666666666666667
1 1 0.3333333333333333
1 1 0.5
1 1 0.6666666666666666
1 1 0.8333333333333334
1 0.1666666666666667 1
1 0.3333333333333333 1
1 0.5 1
1 0.6666666666666666 1
1 0.8333333333333333 1
0.5 1 0.1666666666666667
0.5 1 0.3333333333333333
0.5 1 0.5
0.5 1 0.6666666666666666
0.5 1 0.8333333333333334
0.5 0.8333333333333334 1
0.5 0.6666666666666667 1
0.5 0.5 1
0.5 0.3333333333333334 1
0.5 0.1666666666666667 1
0.5 0.25 0.25
0.5 0.25 0.5
0.5 0.25 0.75
0.5 0.5 0.25
0.5 0.5 0.5
0.5 0.5 0.75
0.5 0.75 0.25
0.5 0.75 0.5
0.5 0.75 0.75
0 0.75 0.25
0 0.75 0.5
0 0.75 0.75
0 0.5 0.25
0 0.5 0.5
0 0.5 0.75
0 0.25 0.25
0 0.25 0.5
0 0.25 0.75
1 0.1666666666666667 0.1666666666666667
1 0.1666666666666667 0.3333333333333333
1 0.1666666666666667 0.5
1 0.1666666666666667 0.6666666666666666
1 0.1666666666666667 0.8333333333333334
1 0.3333333333333333 0.1666666666666667
1 0.3333333333333333 0.3333333333333333
1 0.3333333333333333 0.5
1 0.3333333333333333 0.6666666666666666
1 0.3333333333333333 0.8333333333333334
1 0.5 0.1666666666666667
1 0.5 0.3333333333333333
1 0.5 0.5
1 0.5 0.6666666666666666
1 0.5 0.8333333333333334
1 0.6666666666666666 0.1666666666666667
1 0.6666666666666666 0.3333333333333333
1 0.6666666666666666 0.5
1 0.6666666666666666 0.6666666666666666
1 0.6666666666666666 0.8333333333333334
1 0.8333333333333333 0.1666666666666667
1 0.8333333333333333 0.3333333333333333
1 0.8333333333333333 0.5
1 0.8333333333333333 0.6666666666666666
1 0.8333333333333333 0.8333333333333334
0.5 0.8333333333333334 0.1666666666666667
0.5 0.8333333333333334 0.3333333333333333
0.5 0.8333333333333334 0.5
0.5 0.8333333333333334 0.6666666666666666
0.5 0.8333333333333334 0.8333333333333334
0.5 0.6666666666666667 0.1666666666666667
0.5 0.6666666666666667 0.3333333333333333
0.5 0.6666666666666667 0.5
0.5 0.6666666666666667 0.6666666666666666
0.5 0.6666666666666667 0.8333333333333334
0.5 0.5 0.1666666666666667
0.5 0.5 0.3333333333333333
0.5 0.5 0.5
0.5 0.5 0.6666666666666666
0.5 0.5 0.8333333333333334
0.5 0.3333333333333334 0.1666666666666667
0.5 0.3333333333333334 0.3333333333333333
0.5 0.3333333333333334 0.5
0.5 0.3333333333333334 0.6666666666666666
0.5 0.3333333333333334 0.8333333333333334
0.5 0.1666666666666667 0.1666666666666667
0.5 0.1666666666666667 0.3333333333333333
0.5 0.1666666666666667 0.5
0.5 0.1666666666666667 0.6666666666666666
0.5 0.1666666666666667 0.8333333333333334

CELLS 196 1188
4 0 1 16 21
4 21 16 17 20
4 20 17 18 19
4 19 18 2 3
4 0 1 25 22
4 22 25 26 23
4 23 26 27 24
4 24 27 5 4
4 1 16 80 25
4 25 80 81 26
4 26 81 82 27
4 27 82 31 5
4 16 17 83 80
4 80 83 84 81
4 81 84 85 82
4 82 85 32 31
4 17 18 86 83
4 83 86 87 84
4 84 87 88 85
4 85 88 33 32
4 18 2 28 86
4 86 28 29 87
4 87 29 30 88
4 88 30 6 33
4 2 3 34 28
4 28 34 35 29
4 29 35 36 30
4 30 36 7 6
4 3 19 89 34
4 34 89 90 35
4 35 90 91 36
4 36 91 37 7
4 19 20 92 89
4 89 92 93 90
4 90 93 94 91
4 91 94 38 37
4 20 21 95 92
4 92 95 96 93
4 93 96 97 94
4 94 97 39 38
4 21 0 22 95
4 95 22 23 96
4 96 23 24 97
4 97 24 4 39
4 4 5 31 39
4 39 31 32 38
4 38 32 33 37
4 37 33 6 7
4 8 9 40 49
4 49 40 41 48
4 48 41 42 47
4 47 42 43 46
4 46 43 44 45
4 45 44 10 11
4 8 9 55 50
4 50 55 56 51
4 51 56 57 52
4 52 57 58 53
4 53 58 59 54
4 54 59 13 12
4 9 40 98 55
4 55 98 99 56
4 56 99 100 57
4 57 100 101 58
4 58 101 102 59
4 59 102 65 13
4 40 41 103 98
4 98 103 104 99
4 99 104 105 100
4 100 105 106 101
4 101 106 107 102
4 102 107 66 65
4 41 42 108 103
4 103 108 109 104
4 104 109 110 105
4 105 110 111 106
4 106 111 112 107
4 107 112 67 66
4 42 43 113 108
4 108 113 114 109
4 109 114 115 110
4 110 115 116 111
4 111 116 117 112
4 112 117 68 67
4 43 44 118 113
4 113 118 119 114
4 114 119 120 115
4 115 120 121 116
4 116 121 122 117
4 117 122 69 68
4 44 10 60 118
4 118 60 61 119
4 119 61 62 120
4 120 62 63 121
4 121 63 64 122
4 122 64 14 69
4 10 11 70 60
4 60 70 71 61
4 61 71 72 62
4 62 72 73 63
4 63 73 74 64
4 64 74 15 14
4 11 45 123 70
4 70 123 124 71
4 71 124 125 72
4 72 125 126 73
4 73 126 127 74
4 74 127 75 15
4 45 46 128 123
4 123 128 129 124
4 124 129 130 125
4 125 130 131 126
4 126 131 132 127
4 127 132 76 75
4 46 47 133 128
4 128 133 134 129
4 129 134 135 130
4 130 135 136 131
4 131 136 137 132
4 132 137 77 76
4 47 48 138 133
4 133 138 139 134
4 134 139 140 135
4 135 140 141 136
4 136 141 142 137
4 137 142 78 77
4 48 49 143 138
4 138 143 144 139
4 139 144 145 140
4 140 145 146 141
4 141 146 147 142
4 142 147 79 78
4 49 8 50 143
4 143 50 51 144
4 144 51 52 145
4 145 52 53 146
4 146 53 54 147
4 147 54 12 79
4 12 13 65 79
4 79 65 66 78
4 78 66 67 77
4 77 67 68 76
4 76 68 69 75
4 75 69 14 15
8 0 1 16 21 22 25 80 95
8 22 25 80 95 23 26 81 96
8 23 26 81 96 24 27 82 97
8 24 27 82 97 4 5 31 39
8 21 16 17 20 95 80 83 92
8 95 80 83 92 96 81 84 93
8 96 81 84 93 97 82 85 94
8 97 82 85 94 39 31 32 38
8 20 17 18 19 92 83 86 89
8 92 83 86 89 93 84 87 90
8 93 84 87 90 94 85 88 91
8 94 85 88 91 38 32 33 37
8 19 18 2 3 89 86 28 34
8 89 86 28 34 90 87 29 35
8 90 87 29 35 91 88 30 36
8 91 88 30 36 37 33 6 7
8 8 9 40 49 50 55 98 143
8 50 55 98 143 51 56 99 144
8 51 56 99 144 52 57 100 145
8 52 57 100 145 53 58 101 146
8 53 58 101 146 54 59 102 147
8 54 59 102 147 12 13 65 79
8 49 40 41 48 143 98 103 138
8 143 98 103 138 144 99 104 139
8 144 99 104 139 145 100 105 140
8 145 100 105 140 146 101 106 141
8 146 101 106 141 147 102 107 142
8 147 102 107 142 79 65 66 78
8 48 41 42 47 138 103 108 133
8 138 103 108 133 139 104 109 134
8 139 104 109 134 140 105 110 135
8 140 105 110 135 141 106 111 136
8 141 106 111 136 142 107 112 137
8 142 107 112 137 78 66 67 77
8 47 42 43 46 133 108 113 128
8 133 108 113 128 134 109 114 129
8 134 109 114 129 135 110 115 130
8 135 110 115 130 136 111 116 131
8 136 111 116 131 137 112 117 132
8 137 112 117 132 77 67 68 76
8 46 43 44 45 128 113 118 123
8 128 113 118 123 129 114 119 124
8 129 114 119 124 130 115 120 125
8 130 115 120 125 131 116 121 126
8 131 116 121 126 132 117 122 127
8 132 117 122 127 76 68 69 75
8 45 44 10 11 123 118 60 70
8 123 118 60 70 124 119 61 71
8 124 119 61 71 125 120 62 72
8 125 120 62 72 126 121 63 73
8 126 121 63 73 127 122 64 74
8 127 122 64 74 75 69 14 15

CELL_TYPES 196
9
9
9
9
9
9
9
9
9
9
9
9
9
9
9
9
9
9
9
9
9
9
9
9
9
9
9
9
9
9
9
9
9
9
9
9
9
9
9
9
9
9
9
9
9
9
9
9
9
9
9
9
9
9
9
9
9
9
9
9
9
9
9
9
9
9
9
9
9
9
9
9
9
9
9
9
9
9
9
9
9
9
9
9
9
9
9
9
9
9
9
9
9
9
9
9
9
9
9
9
9
9
9
9
9
9
9
9
9
9
9
9
9
9
9
9
9
9
9
9
9
9
9
9
9
9
9
9
9
9
9
9
9
9
9
9
9
9
9
9
9
9
9
9
12
12
12
12
12
12
12
12
12
12
12
12
12
12
12
12
12
12
12
12
12
12
12
12
12
12
12
12
12
12
12
12
12
12
12
12
12
12
12
12
12
12
12
12
12
12
12
12
12
12
12
12

CELL_DATA 196
SCALARS CellEntityIds int 1
LOOKUP_TABLE default
2
2
2
2
2
2
2
2
1
1
1
1
1
1
1
1
1
1
1
1
1
1
1
1
2
2
2
2
2
2
2
2
2
2
2
2
2
2
2
2
2
2
2
2
2
2
2
2
4
4
4
4
4
4
4
4
4
4
4
4
4
4
4
4
4
4
4
4
4
4
4
4
4
4
4
4
4
4
4
4
4
4
4
4
4
4
4
4
4
4
4
4
4
4
4
4
4
4
4
4
4
4
3
3
3
3
3
3
3
3
3
3
3
3
3
3
3
3
3
3
3
3
3
3
3
3
3
3
3
3
3
3
3
3
3
3
3
3
4
4
4
4
4
4
1
1
1
1
1
1
1
1
1
1
1
1
1
1
1
1
2
2
2
2
2
2
2
2
2
2
2
2
2
2
2
2
2
2
2
2
2
2
2
2
2
2
2
2
2
2
2
2
2
2
2
2
