# vtk DataFile Version 2.0
box, Created by Gmsh 4.13.1 
ASCII
DATASET UNSTRUCTURED_GRID
POINTS 8 double
0 0 0
1 0 0
1 1 0
0 1 0
0 0 1
1 0 1
1 1 1
0 1 1

CELLS 3 19
4 0 1 2 3
4 4 5 6 7
8 0 1 2 3 4 5 6 7

CELL_TYPES 3
9
9
12

CELL_DATA 3
SCALARS CellEntityIds int 1
LOOKUP_TABLE default
1
2
1
