<VTKFile type="UnstructuredGrid" version="1.0">
<UnstructuredGrid>
<FieldData>
<DataArray type="Float64" Name="TIME" NumberOfTuples="1" format="ascii" RangeMin="0" RangeMax="0">
0
</DataArray>
</FieldData>
<Piece NumberOfPoints="2025" NumberOfCells="1536">
<Points>
<DataArray type="Float64" NumberOfComponents="3" format="ascii">
500 500 1500 437.5 500 1500 375 500 1500 312.5
500 1500 250 500 1500 187.5 500 1500 125 500
1500 62.5 500 1500 0 500 1500 500 437.5 1500
437.5 437.5 1500 375 437.5 1500 312.5 437.5 1500 250
437.5 1500 187.5 437.5 1500 125 437.5 1500 62.5 437.5
1500 0 437.5 1500 500 375 1500 437.5 375 1500
375 375 1500 312.5 375 1500 250 375 1500 187.5
375 1500 125 375 1500 62.5 375 1500 0 375
1500 500 312.5 1500 437.5 312.5 1500 375 312.5 1500
312.5 312.5 1500 250 312.5 1500 187.5 312.5 1500 125
312.5 1500 62.5 312.5 1500 0 312.5 1500 500 250
1500 437.5 250 1500 375 250 1500 312.5 250 1500
250 250 1500 187.5 250 1500 125 250 1500 62.5
250 1500 0 250 1500 500 187.5 1500 437.5 187.5
1500 375 187.5 1500 312.5 187.5 1500 250 187.5 1500
187.5 187.5 1500 125 187.5 1500 62.5 187.5 1500 0
187.5 1500 500 125 1500 437.5 125 1500 375 125
1500 312.5 125 1500 250 125 1500 187.5 125 1500
125 125 1500 62.5 125 1500 0 125 1500 500
62.5 1500 437.5 62.5 1500 375 62.5 1500 312.5 62.5
1500 250 62.5 1500 187.5 62.5 1500 125 62.5 1500
62.5 62.5 1500 0 62.5 1500 500 0 1500 437.5
0 1500 375 0 1500 312.5 0 1500 250 0
1500 187.5 0 1500 125 0 1500 62.5 0 1500
0 0 1500 500 500 1437.5 437.5 500 1437.5 375
500 1437.5 312.5 500 1437.5 250 500 1437.5 187.5 500
1437.5 125 500 1437.5 62.5 500 1437.5 0 500 1437.5
500 437.5 1437.5 437.5 437.5 1437.5 375 437.5 1437.5 312.5
437.5 1437.5 250 437.5 1437.5 187.5 437.5 1437.5 125 437.5
1437.5 62.5 437.5 1437.5 0 437.5 1437.5 500 375 1437.5
437.5 375 1437.5 375 375 1437.5 312.5 375 1437.5 250
375 1437.5 187.5 375 1437.5 125 375 1437.5 62.5 375
1437.5 0 375 1437.5 500 312.5 1437.5 437.5 312.5 1437.5
375 312.5 1437.5 312.5 312.5 1437.5 250 312.5 1437.5 187.5
312.5 1437.5 125 312.5 1437.5 62.5 312.5 1437.5 0 312.5
1437.5 500 250 1437.5 437.5 250 1437.5 375 250 1437.5
312.5 250 1437.5 250 250 1437.5 187.5 250 1437.5 125
250 1437.5 62.5 250 1437.5 0 250 1437.5 500 187.5
1437.5 437.5 187.5 1437.5 375 187.5 1437.5 312.5 187.5 1437.5
250 187.5 1437.5 187.5 187.5 1437.5 125 187.5 1437.5 62.5
187.5 1437.5 0 187.5 1437.5 500 125 1437.5 437.5 125
1437.5 375 125 1437.5 312.5 125 1437.5 250 125 1437.5
187.5 125 1437.5 125 125 1437.5 62.5 125 1437.5 0
125 1437.5 500 62.5 1437.5 437.5 62.5 1437.5 375 62.5
1437.5 312.5 62.5 1437.5 250 62.5 1437.5 187.5 62.5 1437.5
125 62.5 1437.5 62.5 62.5 1437.5 0 62.5 1437.5 500
0 1437.5 437.5 0 1437.5 375 0 1437.5 312.5 0
1437.5 250 0 1437.5 187.5 0 1437.5 125 0 1437.5
62.5 0 1437.5 0 0 1437.5 500 500 1375 437.5
500 1375 375 500 1375 312.5 500 1375 250 500
1375 187.5 500 1375 125 500 1375 62.5 500 1375
0 500 1375 500 437.5 1375 437.5 437.5 1375 375
437.5 1375 312.5 437.5 1375 250 437.5 1375 187.5 437.5
1375 125 437.5 1375 62.5 437.5 1375 0 437.5 1375
500 375 1375 437.5 375 1375 375 375 1375 312.5
375 1375 250 375 1375 187.5 375 1375 125 375
1375 62.5 375 1375 0 375 1375 500 312.5 1375
437.5 312.5 1375 375 312.5 1375 312.5 312.5 1375 250
312.5 1375 187.5 312.5 1375 125 312.5 1375 62.5 312.5
1375 0 312.5 1375 500 250 1375 437.5 250 1375
375 250 1375 312.5 250 1375 250 250 1375 187.5
250 1375 125 250 1375 62.5 250 1375 0 250
1375 500 187.5 1375 437.5 187.5 1375 375 187.5 1375
312.5 187.5 1375 250 187.5 1375 187.5 187.5 1375 125
187.5 1375 62.5 187.5 1375 0 187.5 1375 500 125
1375 437.5 125 1375 375 125 1375 312.5 125 1375
250 125 1375 187.5 125 1375 125 125 1375 62.5
125 1375 0 125 1375 500 62.5 1375 437.5 62.5
1375 375 62.5 1375 312.5 62.5 1375 250 62.5 1375
187.5 62.5 1375 125 62.5 1375 62.5 62.5 1375 0
62.5 1375 500 0 1375 437.5 0 1375 375 0
1375 312.5 0 1375 250 0 1375 187.5 0 1375
125 0 1375 62.5 0 1375 0 0 1375 500
500 1312.5 437.5 500 1312.5 375 500 1312.5 312.5 500
1312.5 250 500 1312.5 187.5 500 1312.5 125 500 1312.5
62.5 500 1312.5 0 500 1312.5 500 437.5 1312.5 437.5
437.5 1312.5 375 437.5 1312.5 312.5 437.5 1312.5 250 437.5
1312.5 187.5 437.5 1312.5 125 437.5 1312.5 62.5 437.5 1312.5
0 437.5 1312.5 500 375 1312.5 437.5 375 1312.5 375
375 1312.5 312.5 375 1312.5 250 375 1312.5 187.5 375
1312.5 125 375 1312.5 62.5 375 1312.5 0 375 1312.5
500 312.5 1312.5 437.5 312.5 1312.5 375 312.5 1312.5 312.5
312.5 1312.5 250 312.5 1312.5 187.5 312.5 1312.5 125 312.5
1312.5 62.5 312.5 1312.5 0 312.5 1312.5 500 250 1312.5
437.5 250 1312.5 375 250 1312.5 312.5 250 1312.5 250
250 1312.5 187.5 250 1312.5 125 250 1312.5 62.5 250
1312.5 0 250 1312.5 500 187.5 1312.5 437.5 187.5 1312.5
375 187.5 1312.5 312.5 187.5 1312.5 250 187.5 1312.5 187.5
187.5 1312.5 125 187.5 1312.5 62.5 187.5 1312.5 0 187.5
1312.5 500 125 1312.5 437.5 125 1312.5 375 125 1312.5
312.5 125 1312.5 250 125 1312.5 187.5 125 1312.5 125
125 1312.5 62.5 125 1312.5 0 125 1312.5 500 62.5
1312.5 437.5 62.5 1312.5 375 62.5 1312.5 312.5 62.5 1312.5
250 62.5 1312.5 187.5 62.5 1312.5 125 62.5 1312.5 62.5
62.5 1312.5 0 62.5 1312.5 500 0 1312.5 437.5 0
1312.5 375 0 1312.5 312.5 0 1312.5 250 0 1312.5
187.5 0 1312.5 125 0 1312.5 62.5 0 1312.5 0
0 1312.5 500 500 1250 437.5 500 1250 375 500
1250 312.5 500 1250 250 500 1250 187.5 500 1250
125 500 1250 62.5 500 1250 0 500 1250 500
437.5 1250 437.5 437.5 1250 375 437.5 1250 312.5 437.5
1250 250 437.5 1250 187.5 437.5 1250 125 437.5 1250
62.5 437.5 1250 0 437.5 1250 500 375 1250 437.5
375 1250 375 375 1250 312.5 375 1250 250 375
1250 187.5 375 1250 125 375 1250 62.5 375 1250
0 375 1250 500 312.5 1250 437.5 312.5 1250 375
312.5 1250 312.5 312.5 1250 250 312.5 1250 187.5 312.5
1250 125 312.5 1250 62.5 312.5 1250 0 312.5 1250
500 250 1250 437.5 250 1250 375 250 1250 312.5
250 1250 250 250 1250 187.5 250 1250 125 250
1250 62.5 250 1250 0 250 1250 500 187.5 1250
437.5 187.5 1250 375 187.5 1250 312.5 187.5 1250 250
187.5 1250 187.5 187.5 1250 125 187.5 1250 62.5 187.5
1250 0 187.5 1250 500 125 1250 437.5 125 1250
375 125 1250 312.5 125 1250 250 125 1250 187.5
125 1250 125 125 1250 62.5 125 1250 0 125
1250 500 62.5 1250 437.5 62.5 1250 375 62.5 1250
312.5 62.5 1250 250 62.5 1250 187.5 62.5 1250 125
62.5 1250 62.5 62.5 1250 0 62.5 1250 500 0
1250 437.5 0 1250 375 0 1250 312.5 0 1250
250 0 1250 187.5 0 1250 125 0 1250 62.5
0 1250 0 0 1250 500 500 1187.5 437.5 500
1187.5 375 500 1187.5 312.5 500 1187.5 250 500 1187.5
187.5 500 1187.5 125 500 1187.5 62.5 500 1187.5 0
500 1187.5 500 437.5 1187.5 437.5 437.5 1187.5 375 437.5
1187.5 312.5 437.5 1187.5 250 437.5 1187.5 187.5 437.5 1187.5
125 437.5 1187.5 62.5 437.5 1187.5 0 437.5 1187.5 500
375 1187.5 437.5 375 1187.5 375 375 1187.5 312.5 375
1187.5 250 375 1187.5 187.5 375 1187.5 125 375 1187.5
62.5 375 1187.5 0 375 1187.5 500 312.5 1187.5 437.5
312.5 1187.5 375 312.5 1187.5 312.5 312.5 1187.5 250 312.5
1187.5 187.5 312.5 1187.5 125 312.5 1187.5 62.5 312.5 1187.5
0 312.5 1187.5 500 250 1187.5 437.5 250 1187.5 375
250 1187.5 312.5 250 1187.5 250 250 1187.5 187.5 250
1187.5 125 250 1187.5 62.5 250 1187.5 0 250 1187.5
500 187.5 1187.5 437.5 187.5 1187.5 375 187.5 1187.5 312.5
187.5 1187.5 250 187.5 1187.5 187.5 187.5 1187.5 125 187.5
1187.5 62.5 187.5 1187.5 0 187.5 1187.5 500 125 1187.5
437.5 125 1187.5 375 125 1187.5 312.5 125 1187.5 250
125 1187.5 187.5 125 1187.5 125 125 1187.5 62.5 125
1187.5 0 125 1187.5 500 62.5 1187.5 437.5 62.5 1187.5
375 62.5 1187.5 312.5 62.5 1187.5 250 62.5 1187.5 187.5
62.5 1187.5 125 62.5 1187.5 62.5 62.5 1187.5 0 62.5
1187.5 500 0 1187.5 437.5 0 1187.5 375 0 1187.5
312.5 0 1187.5 250 0 1187.5 187.5 0 1187.5 125
0 1187.5 62.5 0 1187.5 0 0 1187.5 500 500
1125 437.5 500 1125 375 500 1125 312.5 500 1125
250 500 1125 187.5 500 1125 125 500 1125 62.5
500 1125 0 500 1125 500 437.5 1125 437.5 437.5
1125 375 437.5 1125 312.5 437.5 1125 250 437.5 1125
187.5 437.5 1125 125 437.5 1125 62.5 437.5 1125 0
437.5 1125 500 375 1125 437.5 375 1125 375 375
1125 312.5 375 1125 250 375 1125 187.5 375 1125
125 375 1125 62.5 375 1125 0 375 1125 500
312.5 1125 437.5 312.5 1125 375 312.5 1125 312.5 312.5
1125 250 312.5 1125 187.5 312.5 1125 125 312.5 1125
62.5 312.5 1125 0 312.5 1125 500 250 1125 437.5
250 1125 375 250 1125 312.5 250 1125 250 250
1125 187.5 250 1125 125 250 1125 62.5 250 1125
0 250 1125 500 187.5 1125 437.5 187.5 1125 375
187.5 1125 312.5 187.5 1125 250 187.5 1125 187.5 187.5
1125 125 187.5 1125 62.5 187.5 1125 0 187.5 1125
500 125 1125 437.5 125 1125 375 125 1125 312.5
125 1125 250 125 1125 187.5 125 1125 125 125
1125 62.5 125 1125 0 125 1125 500 62.5 1125
437.5 62.5 1125 375 62.5 1125 312.5 62.5 1125 250
62.5 1125 187.5 62.5 1125 125 62.5 1125 62.5 62.5
1125 0 62.5 1125 500 0 1125 437.5 0 1125
375 0 1125 312.5 0 1125 250 0 1125 187.5
0 1125 125 0 1125 62.5 0 1125 0 0
1125 500 500 1062.5 437.5 500 1062.5 375 500 1062.5
312.5 500 1062.5 250 500 1062.5 187.5 500 1062.5 125
500 1062.5 62.5 500 1062.5 0 500 1062.5 500 437.5
1062.5 437.5 437.5 1062.5 375 437.5 1062.5 312.5 437.5 1062.5
250 437.5 1062.5 187.5 437.5 1062.5 125 437.5 1062.5 62.5
437.5 1062.5 0 437.5 1062.5 500 375 1062.5 437.5 375
1062.5 375 375 1062.5 312.5 375 1062.5 250 375 1062.5
187.5 375 1062.5 125 375 1062.5 62.5 375 1062.5 0
375 1062.5 500 312.5 1062.5 437.5 312.5 1062.5 375 312.5
1062.5 312.5 312.5 1062.5 250 312.5 1062.5 187.5 312.5 1062.5
125 312.5 1062.5 62.5 312.5 1062.5 0 312.5 1062.5 500
250 1062.5 437.5 250 1062.5 375 250 1062.5 312.5 250
1062.5 250 250 1062.5 187.5 250 1062.5 125 250 1062.5
62.5 250 1062.5 0 250 1062.5 500 187.5 1062.5 437.5
187.5 1062.5 375 187.5 1062.5 312.5 187.5 1062.5 250 187.5
1062.5 187.5 187.5 1062.5 125 187.5 1062.5 62.5 187.5 1062.5
0 187.5 1062.5 500 125 1062.5 437.5 125 1062.5 375
125 1062.5 312.5 125 1062.5 250 125 1062.5 187.5 125
1062.5 125 125 1062.5 62.5 125 1062.5 0 125 1062.5
500 62.5 1062.5 437.5 62.5 1062.5 375 62.5 1062.5 312.5
62.5 1062.5 250 62.5 1062.5 187.5 62.5 1062.5 125 62.5
[...]
<PointData>
<DataArray type="Float64" Name="ux" NumberOfComponents="1" format="ascii">
1.42452e-014 1.06593e-009 6.68889e-010 2.58041e-010 -4.97958e-017 -2.58041e-010 -6.68889e-010 -1.06593e-009 -1.42452e-014 2.84903e-014
6.40309e-010 5.42053e-010 2.48235e-010 -4.54176e-017 -2.48235e-010 -5.42054e-010 -6.40309e-010 -2.84903e-014 2.84903e-014 2.04615e-010
2.8879e-010 1.72073e-010 -5.25576e-017 -1.72073e-010 -2.8879e-010 -2.04615e-010 -2.84903e-014 2.84903e-014 9.73471e-011 1.35162e-010
9.69597e-011 -4.86686e-017 -9.69598e-011 -1.35162e-010 -9.73471e-011 -2.84903e-014 2.84903e-014 6.51629e-011 9.71758e-011 6.95547e-011
-4.53815e-017 -6.95547e-011 -9.71758e-011 -6.51629e-011 -2.84903e-014 2.84903e-014 9.7347e-011 1.35162e-010 9.69597e-011 -3.84975e-017
-9.69597e-011 -1.35162e-010 -9.73471e-011 -2.84903e-014 2.84903e-014 2.04614e-010 2.8879e-010 1.72073e-010 -2.99235e-017 -1.72073e-010
-2.8879e-010 -2.04615e-010 -2.84903e-014 2.84903e-014 6.40309e-010 5.42053e-010 2.48235e-010 -2.8204e-017 -2.48235e-010 -5.42054e-010
-6.40309e-010 -2.84903e-014 1.42452e-014 1.06593e-009 6.68889e-010 2.58041e-010 -2.21102e-017 -2.58041e-010 -6.68889e-010 -1.06593e-009
-1.42452e-014 2.84903e-014 -2.14073e-009 -3.58878e-010 -1.13974e-010 -2.04816e-017 1.13974e-010 3.58878e-010 2.14073e-009 -2.84903e-014
5.69805e-014 -3.19325e-010 -3.38978e-010 -8.74601e-011 -2.23879e-017 8.74601e-011 3.38978e-010 3.19325e-010 -5.69805e-014 5.69805e-014
-1.37888e-010 -8.29221e-011 -5.18627e-011 -1.92211e-017 5.18627e-011 8.2922e-011 1.37888e-010 -5.69805e-014 5.69805e-014 -1.684e-011
-3.33135e-011 -1.36886e-011 -9.39764e-018 1.36886e-011 3.33135e-011 1.684e-011 -5.69805e-014 5.69805e-014 -1.13411e-011 -9.82339e-012
-8.66503e-012 -4.76529e-018 8.66499e-012 9.82335e-012 1.13411e-011 -5.69805e-014 5.69805e-014 -1.684e-011 -3.33135e-011 -1.36886e-011
-6.948e-018 1.36886e-011 3.33135e-011 1.684e-011 -5.69805e-014 5.69805e-014 -1.37888e-010 -8.2922e-011 -5.18627e-011 -1.62768e-017
5.18627e-011 8.2922e-011 1.37888e-010 -5.69805e-014 5.69805e-014 -3.19325e-010 -3.38978e-010 -8.74601e-011 -2.053e-017 8.74601e-011
3.38978e-010 3.19325e-010 -5.69805e-014 2.84903e-014 -2.14073e-009 -3.58878e-010 -1.13974e-010 -1.12192e-017 1.13974e-010 3.58878e-010
2.14073e-009 -2.84903e-014 2.84903e-014 -5.11418e-010 -6.69137e-010 -2.52473e-010 -4.31747e-018 2.52473e-010 6.69137e-010 5.11418e-010
-2.84903e-014 5.69805e-014 -4.67474e-010 -4.22484e-010 -2.2179e-010 -4.37591e-018 2.2179e-010 4.22484e-010 4.67474e-010 -5.69805e-014
5.69805e-014 -1.70885e-010 -2.21414e-010 -1.30705e-010 -3.23723e-018 1.30705e-010 2.21414e-010 1.70885e-010 -5.69805e-014 5.69805e-014
-9.10824e-011 -1.08735e-010 -7.18208e-011 5.79531e-018 7.18207e-011 1.08735e-010 9.10824e-011 -5.69805e-014 5.69805e-014 -5.57266e-011
-7.97996e-011 -5.28962e-011 3.84507e-018 5.28962e-011 7.97996e-011 5.57266e-011 -5.69805e-014 5.69805e-014 -9.10824e-011 -1.08735e-010
-7.18208e-011 -2.8431e-018 7.18208e-011 1.08735e-010 9.10824e-011 -5.69805e-014 5.69805e-014 -1.70885e-010 -2.21414e-010 -1.30705e-010
-2.56773e-018 1.30705e-010 2.21414e-010 1.70885e-010 -5.69805e-014 5.69805e-014 -4.67474e-010 -4.22484e-010 -2.2179e-010 -5.55661e-018
2.2179e-010 4.22484e-010 4.67474e-010 -5.69805e-014 2.84903e-014 -5.11418e-010 -6.69137e-010 -2.52473e-010 -5.99725e-019 2.52473e-010
6.69137e-010 5.11418e-010 -2.84903e-014 2.84903e-014 -2.74211e-010 -3.3141e-010 -2.23564e-010 1.75248e-017 2.23564e-010 3.3141e-010
2.74211e-010 -2.84903e-014 5.69805e-014 -2.26175e-010 -2.94368e-010 -1.8171e-010 1.47425e-017 1.8171e-010 2.94368e-010 2.26175e-010
-5.69805e-014 5.69805e-014 -1.5295e-010 -1.88472e-010 -1.2237e-010 4.79893e-018 1.2237e-010 1.88472e-010 1.5295e-010 -5.69805e-014
5.69805e-014 -8.46288e-011 -1.16357e-010 -7.79144e-011 1.11628e-017 7.79144e-011 1.16357e-010 8.46288e-011 -5.69805e-014 5.69805e-014
-6.90474e-011 -9.19601e-011 -6.29663e-011 3.92102e-018 6.29663e-011 9.19601e-011 6.90474e-011 -5.69805e-014 5.69805e-014 -8.46288e-011
-1.16357e-010 -7.79144e-011 6.59716e-018 7.79144e-011 1.16357e-010 8.46288e-011 -5.69805e-014 5.69805e-014 -1.5295e-010 -1.88472e-010
-1.2237e-010 5.68624e-018 1.2237e-010 1.88472e-010 1.5295e-010 -5.69805e-014 5.69805e-014 -2.26175e-010 -2.94368e-010 -1.8171e-010
2.95779e-018 1.8171e-010 2.94368e-010 2.26175e-010 -5.69805e-014 2.84903e-014 -2.74211e-010 -3.3141e-010 -2.23564e-010 1.33043e-017
2.23564e-010 3.3141e-010 2.74211e-010 -2.84903e-014 2.84903e-014 -1.31567e-010 -1.81815e-010 -1.2223e-010 3.41587e-017 1.2223e-010
1.81815e-010 1.31567e-010 -2.84903e-014 5.69805e-014 -1.20131e-010 -1.6251e-010 -1.11481e-010 2.35278e-017 1.11481e-010 1.6251e-010
1.20131e-010 -5.69805e-014 5.69805e-014 -9.09845e-011 -1.2448e-010 -8.40614e-011 1.99458e-017 8.40615e-011 1.2448e-010 9.09845e-011
-5.69805e-014 5.69805e-014 -6.56946e-011 -8.89953e-011 -6.11619e-011 1.8788e-017 6.11619e-011 8.89953e-011 6.56946e-011 -5.69805e-014
5.69805e-014 -5.45522e-011 -7.60582e-011 -5.25319e-011 1.92911e-017 5.25319e-011 7.60583e-011 5.45522e-011 -5.69805e-014 5.69805e-014
-6.56946e-011 -8.89953e-011 -6.11619e-011 1.7838e-017 6.11619e-011 8.89953e-011 6.56946e-011 -5.69805e-014 5.69805e-014 -9.09845e-011
-1.2448e-010 -8.40614e-011 2.53193e-017 8.40614e-011 1.2448e-010 9.09845e-011 -5.69805e-014 5.69805e-014 -1.20131e-010 -1.6251e-010
-1.11481e-010 2.87129e-017 1.11481e-010 1.6251e-010 1.20131e-010 -5.69805e-014 2.84903e-014 -1.31567e-010 -1.81815e-010 -1.2223e-010
2.3349e-017 1.2223e-010 1.81815e-010 1.31567e-010 -2.84903e-014 2.84903e-014 -6.66814e-011 -9.27149e-011 -6.49678e-011 3.68537e-017
6.49679e-011 9.27149e-011 6.66814e-011 -2.84903e-014 5.69805e-014 -6.21462e-011 -8.68307e-011 -6.04407e-011 3.28565e-017 6.04408e-011
8.68307e-011 6.21462e-011 -5.69805e-014 5.69805e-014 -5.19193e-011 -7.2224e-011 -5.04105e-011 3.21236e-017 5.04105e-011 7.2224e-011
5.19193e-011 -5.69805e-014 5.69805e-014 -4.18112e-011 -5.84108e-011 -4.06258e-011 2.78269e-017 4.06258e-011 5.84109e-011 4.18112e-011
-5.69805e-014 5.69805e-014 -3.79129e-011 -5.26917e-011 -3.67827e-011 2.96363e-017 3.67828e-011 5.26917e-011 3.79129e-011 -5.69805e-014
5.69805e-014 -4.18112e-011 -5.84108e-011 -4.06258e-011 2.97959e-017 4.06259e-011 5.84109e-011 4.18112e-011 -5.69805e-014 5.69805e-014
-5.19193e-011 -7.2224e-011 -5.04105e-011 2.94826e-017 5.04105e-011 7.2224e-011 5.19193e-011 -5.69805e-014 5.69805e-014 -6.21462e-011
-8.68307e-011 -6.04407e-011 2.94209e-017 6.04408e-011 8.68307e-011 6.21462e-011 -5.69805e-014 2.84903e-014 -6.66814e-011 -9.27149e-011
-6.49678e-011 3.74559e-017 6.49679e-011 9.27149e-011 6.66814e-011 -2.84903e-014 2.84903e-014 -3.3648e-011 -4.74047e-011 -3.33117e-011
3.24387e-017 3.33117e-011 4.74047e-011 3.3648e-011 -2.84903e-014 5.69805e-014 -3.21394e-011 -4.52074e-011 -3.18187e-011 3.06067e-017
3.18187e-011 4.52074e-011 3.21395e-011 -5.69805e-014 5.69805e-014 -2.84559e-011 -4.00565e-011 -2.81509e-011 3.261e-017 2.81509e-011
4.00565e-011 2.84559e-011 -5.69805e-014 5.69805e-014 -2.48492e-011 -3.49138e-011 -2.4546e-011 3.18562e-017 2.4546e-011 3.49139e-011
2.48492e-011 -5.69805e-014 5.69805e-014 -2.33355e-011 -3.28286e-011 -2.30424e-011 3.57152e-017 2.30425e-011 3.28286e-011 2.33355e-011
-5.69805e-014 5.69805e-014 -2.48492e-011 -3.49138e-011 -2.4546e-011 3.80244e-017 2.4546e-011 3.49139e-011 2.48492e-011 -5.69805e-014
5.69805e-014 -2.84559e-011 -4.00565e-011 -2.81509e-011 2.92218e-017 2.81509e-011 4.00565e-011 2.84559e-011 -5.69805e-014 5.69805e-014
-3.21394e-011 -4.52074e-011 -3.18187e-011 2.60759e-017 3.18187e-011 4.52074e-011 3.21395e-011 -5.69805e-014 2.84903e-014 -3.3648e-011
-4.74046e-011 -3.33117e-011 2.76683e-017 3.33117e-011 4.74047e-011 3.3648e-011 -2.84903e-014 2.84903e-014 -1.62651e-011 -2.29628e-011
-1.62099e-011 2.5565e-017 1.621e-011 2.29628e-011 1.62651e-011 -2.84903e-014 5.69805e-014 -1.57395e-011 -2.22334e-011 -1.56854e-011
2.56343e-017 1.56854e-011 2.22334e-011 1.57395e-011 -5.69805e-014 5.69805e-014 -1.44826e-011 -2.04548e-011 -1.44323e-011 3.17257e-017
1.44324e-011 2.04548e-011 1.44826e-011 -5.69805e-014 5.69805e-014 -1.32276e-011 -1.86845e-011 -1.31745e-011 3.82669e-017 1.31746e-011
1.86846e-011 1.32276e-011 -5.69805e-014 5.69805e-014 -1.27134e-011 -1.79466e-011 -1.26569e-011 3.58635e-017 1.2657e-011 1.79467e-011
1.27135e-011 -5.69805e-014 5.69805e-014 -1.32276e-011 -1.86845e-011 -1.31745e-011 3.99531e-017 1.31746e-011 1.86846e-011 1.32276e-011
-5.69805e-014 5.69805e-014 -1.44826e-011 -2.04548e-011 -1.44323e-011 3.48123e-017 1.44324e-011 2.04548e-011 1.44826e-011 -5.69805e-014
5.69805e-014 -1.57395e-011 -2.22334e-011 -1.56854e-011 3.09532e-017 1.56854e-011 2.22334e-011 1.57395e-011 -5.69805e-014 2.84903e-014
-1.62651e-011 -2.29628e-011 -1.62099e-011 3.34896e-017 1.621e-011 2.29628e-011 1.62651e-011 -2.84903e-014 2.84903e-014 -3.09239e-012
-4.39091e-012 -3.10594e-012 1.20758e-017 3.10597e-012 4.39093e-012 3.09241e-012 -2.84903e-014 5.69805e-014 -3.02129e-012 -4.29296e-012
-3.03718e-012 1.97555e-017 3.03722e-012 4.293e-012 3.02131e-012 -5.69805e-014 5.69805e-014 -2.84891e-012 -4.05633e-012 -2.86996e-012
2.40113e-017 2.87001e-012 4.05638e-012 2.84893e-012 -5.69805e-014 5.69805e-014 -2.6819e-012 -3.81901e-012 -2.70283e-012 3.34142e-017
2.70289e-012 3.81906e-012 2.68192e-012 -5.69805e-014 5.69805e-014 -2.61238e-012 -3.72137e-012 -2.63322e-012 3.29063e-017 2.63328e-012
3.7214e-012 2.61239e-012 -5.69805e-014 5.69805e-014 -2.68191e-012 -3.81901e-012 -2.70283e-012 2.61948e-017 2.70288e-012 3.81905e-012
2.68192e-012 -5.69805e-014 5.69805e-014 -2.84891e-012 -4.05634e-012 -2.86996e-012 3.19152e-017 2.87001e-012 4.05638e-012 2.84893e-012
-5.69805e-014 5.69805e-014 -3.02129e-012 -4.29296e-012 -3.03718e-012 2.72961e-017 3.03723e-012 4.29299e-012 3.0213e-012 -5.69805e-014
2.84903e-014 -3.09239e-012 -4.3909e-012 -3.10593e-012 2.33894e-017 3.10597e-012 4.39093e-012 3.0924e-012 -2.84903e-014 2.84903e-014
-1.55605e-012 -2.2219e-012 -1.57534e-012 3.69693e-018 1.57535e-012 2.22191e-012 1.55605e-012 -2.84903e-014 5.69805e-014 -1.53297e-012
-2.19234e-012 -1.55416e-012 1.02491e-017 1.55418e-012 2.19235e-012 1.53296e-012 -5.69805e-014 5.69805e-014 -1.47659e-012 -2.11918e-012
-1.5031e-012 1.42351e-017 1.50312e-012 2.11919e-012 1.4766e-012 -5.69805e-014 5.69805e-014 -1.4251e-012 -2.0461e-012 -1.45181e-012
2.32783e-017 1.45186e-012 2.04613e-012 1.42511e-012 -5.69805e-014 5.69805e-014 -1.40391e-012 -2.01603e-012 -1.43056e-012 1.70548e-017
1.43059e-012 2.01606e-012 1.40393e-012 -5.69805e-014 5.69805e-014 -1.4251e-012 -2.0461e-012 -1.45181e-012 2.01826e-017 1.45184e-012
2.04612e-012 1.42511e-012 -5.69805e-014 5.69805e-014 -1.47659e-012 -2.11917e-012 -1.50308e-012 1.95439e-017 1.50312e-012 2.11919e-012
1.4766e-012 -5.69805e-014 5.69805e-014 -1.53295e-012 -2.19232e-012 -1.55415e-012 1.98099e-017 1.55418e-012 2.19235e-012 1.53297e-012
-5.69805e-014 2.84903e-014 -1.55603e-012 -2.22188e-012 -1.57532e-012 1.52624e-017 1.57535e-012 2.22191e-012 1.55605e-012 -2.84903e-014
2.84903e-014 -7.6452e-013 -1.10291e-012 -7.84551e-013 2.73602e-018 7.84551e-013 1.1029e-012 7.64511e-013 -2.84903e-014 5.69805e-014
-7.56038e-013 -1.09431e-012 -7.78408e-013 2.06798e-018 7.78402e-013 1.0943e-012 7.56035e-013 -5.69805e-014 5.69805e-014 -7.35599e-013
-1.07222e-012 -7.63412e-013 6.39861e-018 7.63426e-013 1.07223e-012 7.35596e-013 -5.69805e-014 5.69805e-014 -7.20239e-013 -1.0502e-012
-7.48344e-013 1.62603e-017 7.48362e-013 1.05021e-012 7.20246e-013 -5.69805e-014 5.69805e-014 -7.13965e-013 -1.0414e-012 -7.42058e-013
1.39459e-017 7.42081e-013 1.0414e-012 7.13969e-013 -5.69805e-014 5.69805e-014 -7.20239e-013 -1.0502e-012 -7.48342e-013 1.12304e-017
7.48365e-013 1.05022e-012 7.20241e-013 -5.69805e-014 5.69805e-014 -7.35583e-013 -1.07221e-012 -7.63402e-013 9.68067e-018 7.63423e-013
1.07223e-012 7.35599e-013 -5.69805e-014 5.69805e-014 -7.56029e-013 -1.09429e-012 -7.78382e-013 1.37448e-017 7.7841e-013 1.0943e-012
7.56035e-013 -5.69805e-014 2.84903e-014 -7.64507e-013 -1.10289e-012 -7.84539e-013 1.42345e-017 7.84561e-013 1.10291e-012 7.64516e-013
-2.84903e-014 2.84903e-014 -3.60633e-013 -5.31889e-013 -3.80901e-013 -8.36191e-018 3.80884e-013 5.31869e-013 3.60616e-013 -2.84903e-014
5.69805e-014 -3.56538e-013 -5.29506e-013 -3.79148e-013 -4.12212e-018 3.79136e-013 5.29491e-013 3.56535e-013 -5.69805e-014 5.69805e-014
-3.46721e-013 -5.22485e-013 -3.74853e-013 -2.08127e-018 3.7484e-013 5.22471e-013 3.46719e-013 -5.69805e-014 5.69805e-014 -3.42038e-013
-5.15576e-013 -3.70456e-013 1.02399e-018 3.70462e-013 5.15576e-013 3.42036e-013 -5.69805e-014 5.69805e-014 -3.40191e-013 -5.13017e-013
-3.68619e-013 9.85174e-018 3.68624e-013 5.1302e-013 3.40186e-013 -5.69805e-014 5.69805e-014 -3.42031e-013 -5.15573e-013 -3.70457e-013
3.80483e-018 3.70472e-013 5.15571e-013 3.4203e-013 -5.69805e-014 5.69805e-014 -3.46715e-013 -5.22466e-013 -3.74834e-013 6.54859e-018
3.74842e-013 5.2248e-013 3.46717e-013 -5.69805e-014 5.69805e-014 -3.56533e-013 -5.29492e-013 -3.7913e-013 1.04684e-017 3.79147e-013
5.29497e-013 3.56533e-013 -5.69805e-014 2.84903e-014 -3.60621e-013 -5.31871e-013 -3.80879e-013 7.77232e-018 3.8089e-013 5.31876e-013
3.60618e-013 -2.84903e-014 2.84903e-014 -1.57655e-013 -2.44909e-013 -1.78046e-013 -1.55558e-017 1.78018e-013 2.44882e-013 1.57639e-013
-2.84903e-014 5.69805e-014 -1.54803e-013 -2.4429e-013 -1.77541e-013 -1.36164e-017 1.77511e-013 2.44268e-013 1.54787e-013 -5.69805e-014
5.69805e-014 -1.47985e-013 -2.41487e-013 -1.76185e-013 -1.28575e-017 1.76161e-013 2.41465e-013 1.47978e-013 -5.69805e-014 5.69805e-014
-1.46266e-013 -2.38762e-013 -1.74773e-013 -5.63529e-018 1.74754e-013 2.3875e-013 1.46256e-013 -5.69805e-014 5.69805e-014 -1.45645e-013
-2.37945e-013 -1.74143e-013 -1.70245e-018 1.74132e-013 2.37931e-013 1.45643e-013 -5.69805e-014 5.69805e-014 -1.46266e-013 -2.38762e-013
-1.74764e-013 2.23111e-018 1.74754e-013 2.38749e-013 1.46256e-013 -5.69805e-014 5.69805e-014 -1.47986e-013 -2.4147e-013 -1.76179e-013
-4.85726e-018 1.76173e-013 2.41458e-013 1.47974e-013 -5.69805e-014 5.69805e-014 -1.54797e-013 -2.4428e-013 -1.77526e-013 -1.61067e-019
1.77515e-013 2.44271e-013 1.54787e-013 -5.69805e-014 2.84903e-014 -1.57643e-013 -2.44893e-013 -1.78033e-013 7.3304e-019 1.78032e-013
2.44879e-013 1.57638e-013 -2.84903e-014 2.84903e-014 -6.40678e-014 -1.13124e-013 -8.49434e-014 -1.8737e-017 8.48994e-014 1.13086e-013
6.40509e-014 -2.84903e-014 5.69805e-014 -6.18795e-014 -1.1302e-013 -8.47157e-014 -2.20821e-017 8.46757e-014 1.12982e-013 6.18596e-014
-5.69805e-014 5.69805e-014 -5.58833e-014 -1.11246e-013 -8.41073e-014 -1.34496e-017 8.40732e-014 1.11215e-013 5.5864e-014 -5.69805e-014
5.69805e-014 -5.49054e-014 -1.09574e-013 -8.34262e-014 -1.58355e-017 8.33948e-014 1.09546e-013 5.48871e-014 -5.69805e-014 5.69805e-014
-5.45973e-014 -1.09184e-013 -8.31133e-014 -1.76998e-017 8.30777e-014 1.09161e-013 5.45859e-014 -5.69805e-014 5.69805e-014 -5.48985e-014
-1.0957e-013 -8.34239e-014 -1.60734e-017 8.33903e-014 1.09542e-013 5.48875e-014 -5.69805e-014 5.69805e-014 -5.58759e-014 -1.1124e-013
-8.41088e-014 -1.70963e-017 8.40798e-014 1.11207e-013 5.58548e-014 -5.69805e-014 5.69805e-014 -6.18734e-014 -1.13011e-013 -8.47016e-014
-1.55018e-017 8.46744e-014 1.12984e-013 6.18611e-014 -5.69805e-014 2.84903e-014 -6.40632e-014 -1.13117e-013 -8.49306e-014 -1.26906e-017
8.49099e-014 1.13095e-013 6.40483e-014 -2.84903e-014 2.84903e-014 -5.31167e-014 -9.69138e-014 -7.33157e-014 -3.05833e-017 7.32683e-014
9.68723e-014 5.30986e-014 -2.84903e-014 5.69805e-014 -5.05471e-014 -9.67338e-014 -7.31444e-014 -2.75213e-017 7.30915e-014 9.6698e-014
5.05265e-014 -5.69805e-014 5.69805e-014 -4.44743e-014 -9.50736e-014 -7.26585e-014 -3.27878e-017 7.26033e-014 9.50286e-014 4.44499e-014
-5.69805e-014 5.69805e-014 -4.35824e-014 -9.35738e-014 -7.21179e-014 -3.17296e-017 7.20575e-014 9.35276e-014 4.35603e-014 -5.69805e-014
5.69805e-014 -4.33203e-014 -9.32575e-014 -7.18699e-014 -3.7156e-017 7.18033e-014 9.32209e-014 4.33081e-014 -5.69805e-014 5.69805e-014
-4.35759e-014 -9.35618e-014 -7.21172e-014 -3.7005e-017 7.20527e-014 9.35265e-014 4.357e-014 -5.69805e-014 5.69805e-014 -4.44662e-014
-9.50663e-014 -7.26591e-014 -3.01836e-017 7.26044e-014 9.50396e-014 4.44638e-014 -5.69805e-014 5.69805e-014 -5.05404e-014 -9.67286e-014
-7.31446e-014 -3.18676e-017 7.30967e-014 9.67034e-014 5.05279e-014 -5.69805e-014 2.84903e-014 -5.3113e-014 -9.69002e-014 -7.33111e-014
-2.69923e-017 7.32687e-014 9.68771e-014 5.31019e-014 -2.84903e-014 2.84903e-014 -8.61227e-015 -3.35176e-014 -2.84168e-014 -2.5706e-017
2.83751e-014 3.34879e-014 8.59444e-015 -2.84903e-014 5.69805e-014 -5.7326e-015 -3.3259e-014 -2.82581e-014 -2.62267e-017 2.82121e-014
3.32219e-014 5.71488e-015 -5.69805e-014 5.69805e-014 3.91941e-016 -3.1601e-014 -2.77727e-014 -3.0486e-017 2.7725e-014 3.15738e-014
-4.1128e-016 -5.69805e-014 5.69805e-014 1.27236e-015 -3.01246e-014 -2.72528e-014 -3.06258e-017 2.71977e-014 3.00891e-014 -1.28786e-015
-5.69805e-014 5.69805e-014 1.52482e-015 -2.98305e-014 -2.70115e-014 -3.15627e-017 2.69589e-014 2.97928e-014 -1.54587e-015 -5.69805e-014
5.69805e-014 1.27538e-015 -3.01212e-014 -2.72506e-014 -3.21846e-017 2.72029e-014 3.00922e-014 -1.28868e-015 -5.69805e-014 5.69805e-014
3.91375e-016 -3.16041e-014 -2.77704e-014 -2.5386e-017 2.77254e-014 3.15807e-014 -4.01609e-016 -5.69805e-014 5.69805e-014 -5.73072e-015
-3.32515e-014 -2.82566e-014 -2.77116e-017 2.82153e-014 3.32306e-014 5.71986e-015 -5.69805e-014 2.84903e-014 -8.606e-015 -3.35182e-014
-2.84183e-014 -2.76899e-017 2.83759e-014 3.34956e-014 8.59891e-015 -2.84903e-014 2.84903e-014 1.32271e-014 -3.16892e-015 -7.02064e-015
-2.03599e-017 6.98478e-015 3.13684e-015 -1.32457e-014 -2.84903e-014 5.69805e-014 1.57618e-014 -2.97888e-015 -6.84425e-015 -2.35585e-017
6.80605e-015 2.95166e-015 -1.57791e-014 -5.69805e-014 5.69805e-014 2.18143e-014 -1.32235e-015 -6.36343e-015 -2.44177e-017 6.3282e-015
1.29726e-015 -2.18299e-014 -5.69805e-014 5.69805e-014 2.26842e-014 1.56659e-016 -5.8386e-015 -2.29994e-017 5.79848e-015 -1.83696e-016
-2.2698e-014 -5.69805e-014 5.69805e-014 2.29327e-014 4.46135e-016 -5.59174e-015 -2.18577e-017 5.55018e-015 -4.79162e-016 -2.2948e-014
-5.69805e-014 5.69805e-014 2.26821e-014 1.55375e-016 -5.84214e-015 -2.34944e-017 5.80386e-015 -1.75801e-016 -2.26934e-014 -5.69805e-014
5.69805e-014 2.1819e-014 -1.31671e-015 -6.36101e-015 -2.40653e-017 6.32921e-015 1.30335e-015 -2.1821e-014 -5.69805e-014 5.69805e-014
1.57641e-014 -2.97725e-015 -6.84418e-015 -1.9075e-017 6.80999e-015 2.9599e-015 -1.57686e-014 -5.69805e-014 2.84903e-014 1.32307e-014
-3.16132e-015 -7.01816e-015 -2.35226e-017 6.98387e-015 3.14653e-015 -1.32347e-014 -2.84903e-014 2.84903e-014 2.35098e-014 1.13466e-014
3.19818e-015 -1.8363e-017 -3.22804e-015 -1.13641e-014 -2.35201e-014 -2.84903e-014 5.69805e-014 2.60245e-014 1.14886e-014 3.36167e-015
-1.66267e-017 -3.38983e-015 -1.15103e-014 -2.60362e-014 -5.69805e-014 5.69805e-014 3.20254e-014 1.31072e-014 3.83851e-015 -1.56343e-017
-3.86543e-015 -1.31266e-014 -3.20339e-014 -5.69805e-014 5.69805e-014 3.28822e-014 1.45776e-014 4.36296e-015 -1.41772e-017 -4.38662e-015
-1.45983e-014 -3.28907e-014 -5.69805e-014 5.69805e-014 3.31303e-014 1.48708e-014 4.60489e-015 -1.32688e-017 -4.63526e-015 -1.48905e-014
-3.31382e-014 -5.69805e-014 5.69805e-014 3.28836e-014 1.45738e-014 4.35807e-015 -1.49963e-017 -4.38617e-015 -1.45981e-014 -3.28949e-014
-5.69805e-014 5.69805e-014 3.20231e-014 1.31095e-014 3.83734e-015 -1.23838e-017 -3.86244e-015 -1.31236e-014 -3.20315e-014 -5.69805e-014
5.69805e-014 2.60257e-014 1.14908e-014 3.36574e-015 -1.22673e-017 -3.38568e-015 -1.15047e-014 -2.60299e-014 -5.69805e-014 2.84903e-014
2.35101e-014 1.13463e-014 3.19791e-015 -1.12708e-017 -3.21993e-015 -1.13591e-014 -2.35155e-014 -2.84903e-014 2.84903e-014 2.83936e-014
1.82341e-014 8.06529e-015 -1.0437e-017 -8.08524e-015 -1.82532e-014 -2.8398e-014 -2.84903e-014 5.69805e-014 3.08965e-014 1.83745e-014
8.23019e-015 -1.08962e-017 -8.25149e-015 -1.83894e-014 -3.09042e-014 -5.69805e-014 5.69805e-014 3.68836e-014 1.99724e-014 8.69353e-015