# vtk DataFile Version 2.0
domain, Created by Gmsh 4.13.1 
ASCII
DATASET UNSTRUCTURED_GRID
POINTS 125 double
0 0 0
1 0 0
1 1 0
0 1 0
0 0 1
1 0 1
1 1 1
0 1 1
0.25 0 0
0.5 0 0
0.75 0 0
1 0.25 0
1 0.5 0
1 0.75 0
0.75 1 0
0.5 1 0
0.25 1 0
0 0.75 0
0 0.5 0
0 0.25 0
0 0 0.25
0 0 0.5
0 0 0.75
1 0 0.25
1 0 0.5
1 0 0.75
0.25 0 1
0.5 0 1
0.75 0 1
1 1 0.25
1 1 0.5
1 1 0.75
1 0.25 1
1 0.5 1
1 0.75 1
0 1 0.25
0 1 0.5
0 1 0.75
0.75 1 1
0.5 1 1
0.25 1 1
0 0.75 1
0 0.5 1
0 0.25 1
0.25 0.25 0
0.25 0.5 0
0.25 0.75 0
0.5 0.25 0
0.5 0.5 0
0.5 0.75 0
0.75 0.25 0
0.75 0.5 0
0.75 0.75 0
0.25 0 0.25
0.25 0 0.5
0.25 0 0.75
0.5 0 0.25
0.5 0 0.5
0.5 0 0.75
0.75 0 0.25
0.75 0 0.5
0.75 0 0.75
1 0.25 0.25
1 0.25 0.5
1 0.25 0.75
1 0.5 0.25
1 0.5 0.5
1 0.5 0.75
1 0.75 0.25
1 0.75 0.5
1 0.75 0.75
0.75 1 0.25
0.75 1 0.5
0.75 1 0.75
0.5 1 0.25
0.5 1 0.5
0.5 1 0.75
0.25 1 0.25
0.25 1 0.5
0.25 1 0.75
0 0.75 0.25
0 0.75 0.5
0 0.75 0.75
0 0.5 0.25
0 0.5 0.5
0 0.5 0.75
0 0.25 0.25
0 0.25 0.5
0 0.25 0.75
0.25 0.25 1
0.25 0.5 1
0.25 0.75 1
0.5 0.25 1
0.5 0.5 1
0.5 0.75 1
0.75 0.25 1
0.75 0.5 1
0.75 0.75 1
0.25 0.25 0.25
0.25 0.25 0.5
0.25 0.25 0.75
0.25 0.5 0.25
0.25 0.5 0.5
0.25 0.5 0.75
0.25 0.75 0.25
0.25 0.75 0.5
0.25 0.75 0.75
0.5 0.25 0.25
0.5 0.25 0.5
0.5 0.25 0.75
0.5 0.5 0.25
0.5 0.5 0.5
0.5 0.5 0.75
0.5 0.75 0.25
0.5 0.75 0.5
0.5 0.75 0.75
0.75 0.25 0.25
0.75 0.25 0.5
0.75 0.25 0.75
0.75 0.5 0.25
0.75 0.5 0.5
0.75 0.5 0.75
0.75 0.75 0.25
0.75 0.75 0.5
0.75 0.75 0.75

CELLS 96 736
4 0 8 44 19
4 19 44 45 18
4 18 45 46 17
4 17 46 16 3
4 8 9 47 44
4 44 47 48 45
4 45 48 49 46
4 46 49 15 16
4 9 10 50 47
4 47 50 51 48
4 48 51 52 49
4 49 52 14 15
4 10 1 11 50
4 50 11 12 51
4 51 12 13 52
4 52 13 2 14
4 4 26 89 43
4 43 89 90 42
4 42 90 91 41
4 41 91 40 7
4 26 27 92 89
4 89 92 93 90
4 90 93 94 91
4 91 94 39 40
4 27 28 95 92
4 92 95 96 93
4 93 96 97 94
4 94 97 38 39
4 28 5 32 95
4 95 32 33 96
4 96 33 34 97
4 97 34 6 38
8 0 8 44 19 20 53 98 86
8 20 53 98 86 21 54 99 87
8 21 54 99 87 22 55 100 88
8 22 55 100 88 4 26 89 43
8 19 44 45 18 86 98 101 83
8 86 98 101 83 87 99 102 84
8 87 99 102 84 88 100 103 85
8 88 100 103 85 43 89 90 42
8 18 45 46 17 83 101 104 80
8 83 101 104 80 84 102 105 81
8 84 102 105 81 85 103 106 82
8 85 103 106 82 42 90 91 41
8 17 46 16 3 80 104 77 35
8 80 104 77 35 81 105 78 36
8 81 105 78 36 82 106 79 37
8 82 106 79 37 41 91 40 7
8 8 9 47 44 53 56 107 98
8 53 56 107 98 54 57 108 99
8 54 57 108 99 55 58 109 100
8 55 58 109 100 26 27 92 89
8 44 47 48 45 98 107 110 101
8 98 107 110 101 99 108 111 102
8 99 108 111 102 100 109 112 103
8 100 109 112 103 89 92 93 90
8 45 48 49 46 101 110 113 104
8 101 110 113 104 102 111 114 105
8 102 111 114 105 103 112 115 106
8 103 112 115 106 90 93 94 91
8 46 49 15 16 104 113 74 77
8 104 113 74 77 105 114 75 78
8 105 114 75 78 106 115 76 79
8 106 115 76 79 91 94 39 40
8 9 10 50 47 56 59 116 107
8 56 59 116 107 57 60 117 108
8 57 60 117 108 58 61 118 109
8 58 61 118 109 27 28 95 92
8 47 50 51 48 107 116 119 110
8 107 116 119 110 108 117 120 111
8 108 117 120 111 109 118 121 112
8 109 118 121 112 92 95 96 93
8 48 51 52 49 110 119 122 113
8 110 119 122 113 111 120 123 114
8 111 120 123 114 112 121 124 115
8 112 121 124 115 93 96 97 94
8 49 52 14 15 113 122 71 74
8 113 122 71 74 114 123 72 75
8 114 123 72 75 115 124 73 76
8 115 124 73 76 94 97 38 39
8 10 1 11 50 59 23 62 116
8 59 23 62 116 60 24 63 117
8 60 24 63 117 61 25 64 118
8 61 25 64 118 28 5 32 95
8 50 11 12 51 116 62 65 119
8 116 62 65 119 117 63 66 120
8 117 63 66 120 118 64 67 121
8 118 64 67 121 95 32 33 96
8 51 12 13 52 119 65 68 122
8 119 65 68 122 120 66 69 123
8 120 66 69 123 121 67 70 124
8 121 67 70 124 96 33 34 97
8 52 13 2 14 122 68 29 71
8 122 68 29 71 123 69 30 72
8 123 69 30 72 124 70 31 73
8 124 70 31 73 97 34 6 38

CELL_TYPES 96
9
9
9
9
9
9
9
9
9
9
9
9
9
9
9
9
9
9
9
9
9
9
9
9
9
9
9
9
9
9
9
9
12
12
12
12
12
12
12
12
12
12
12
12
12
12
12
12
12
12
12
12
12
12
12
12
12
12
12
12
12
12
12
12
12
12
12
12
12
12
12
12
12
12
12
12
12
12
12
12
12
12
12
12
12
12
12
12
12
12
12
12
12
12
12
12

CELL_DATA 96
SCALARS CellEntityIds int 1
LOOKUP_TABLE default
1
1
1
1
1
1
1
1
1
1
1
1
1
1
1
1
2
2
2
2
2
2
2
2
2
2
2
2
2
2
2
2
1
1
1
1
1
1
1
1
1
1
1
1
1
1
1
1
1
1
1
1
1
1
1
1
1
1
1
1
1
1
1
1
1
1
1
1
1
1
1
1
1
1
1
1
1
1
1
1
1
1
1
1
1
1
1
1
1
1
1
1
1
1
1
1
