# vtk DataFile Version 2.0
domain, Created by Gmsh 4.13.1 
ASCII
DATASET UNSTRUCTURED_GRID
POINTS 64 double
0 0 1
1 0 1
1 1 1
0 1 1
0 0 2
1 0 2
1 1 2
0 1 2
0.3333333333333333 0 1
0.6666666666666666 0 1
1 0.3333333333333333 1
1 0.6666666666666666 1
0.6666666666666667 1 1
0.3333333333333334 1 1
0 0.6666666666666667 1
0 0.3333333333333334 1
0 0 1.333333333333333
0 0 1.666666666666667
1 0 1.333333333333333
1 0 1.666666666666667
0.3333333333333333 0 2
0.6666666666666666 0 2
1 1 1.333333333333333
1 1 1.666666666666667
1 0.3333333333333333 2
1 0.6666666666666666 2
0 1 1.333333333333333
0 1 1.666666666666667
0.6666666666666667 1 2
0.3333333333333334 1 2
0 0.6666666666666667 2
0 0.3333333333333334 2
0.3333333333333334 0.3333333333333334 1
0.3333333333333334 0.6666666666666667 1
0.6666666666666666 0.3333333333333333 1
0.6666666666666666 0.6666666666666666 1
0.3333333333333333 0 1.333333333333333
0.3333333333333333 0 1.666666666666667
0.6666666666666666 0 1.333333333333333
0.6666666666666666 0 1.666666666666667
1 0.3333333333333333 1.333333333333333
1 0.3333333333333333 1.666666666666667
1 0.6666666666666666 1.333333333333333
1 0.6666666666666666 1.666666666666667
0.6666666666666667 1 1.333333333333333
0.6666666666666667 1 1.666666666666667
0.3333333333333334 1 1.333333333333333
0.3333333333333334 1 1.666666666666667
0 0.6666666666666667 1.333333333333333
0 0.6666666666666667 1.666666666666667
0 0.3333333333333334 1.333333333333333
0 0.3333333333333334 1.666666666666667
0.3333333333333334 0.3333333333333334 2
0.3333333333333334 0.6666666666666667 2
0.6666666666666666 0.3333333333333333 2
0.6666666666666666 0.6666666666666666 2
0.3333333333333334 0.3333333333333334 1.333333333333333
0.3333333333333334 0.3333333333333334 1.666666666666667
0.3333333333333334 0.6666666666666667 1.333333333333333
0.3333333333333334 0.6666666666666667 1.666666666666667
0.6666666666666666 0.3333333333333333 1.333333333333333
0.6666666666666666 0.3333333333333333 1.666666666666667
0.6666666666666666 0.6666666666666666 1.333333333333333
0.6666666666666666 0.6666666666666666 1.666666666666667

CELLS 45 333
4 0 8 32 15
4 15 32 33 14
4 14 33 13 3
4 8 9 34 32
4 32 34 35 33
4 33 35 12 13
4 9 1 10 34
4 34 10 11 35
4 35 11 2 12
4 4 20 52 31
4 31 52 53 30
4 30 53 29 7
4 20 21 54 52
4 52 54 55 53
4 53 55 28 29
4 21 5 24 54
4 54 24 25 55
4 55 25 6 28
8 0 8 32 15 16 36 56 50
8 16 36 56 50 17 37 57 51
8 17 37 57 51 4 20 52 31
8 15 32 33 14 50 56 58 48
8 50 56 58 48 51 57 59 49
8 51 57 59 49 31 52 53 30
8 14 33 13 3 48 58 46 26
8 48 58 46 26 49 59 47 27
8 49 59 47 27 30 53 29 7
8 8 9 34 32 36 38 60 56
8 36 38 60 56 37 39 61 57
8 37 39 61 57 20 21 54 52
8 32 34 35 33 56 60 62 58
8 56 60 62 58 57 61 63 59
8 57 61 63 59 52 54 55 53
8 33 35 12 13 58 62 44 46
8 58 62 44 46 59 63 45 47
8 59 63 45 47 53 55 28 29
8 9 1 10 34 38 18 40 60
8 38 18 40 60 39 19 41 61
8 39 19 41 61 21 5 24 54
8 34 10 11 35 60 40 42 62
8 60 40 42 62 61 41 43 63
8 61 41 43 63 54 24 25 55
8 35 11 2 12 62 42 22 44
8 62 42 22 44 63 43 23 45
8 63 43 23 45 55 25 6 28

CELL_TYPES 45
9
9
9
9
9
9
9
9
9
9
9
9
9
9
9
9
9
9
12
12
12
12
12
12
12
12
12
12
12
12
12
12
12
12
12
12
12
12
12
12
12
12
12
12
12

CELL_DATA 45
SCALARS CellEntityIds int 1
LOOKUP_TABLE default
1
1
1
1
1
1
1
1
1
2
2
2
2
2
2
2
2
2
1
1
1
1
1
1
1
1
1
1
1
1
1
1
1
1
1
1
1
1
1
1
1
1
1
1
1
