# vtk DataFile Version 2.0
domain, Created by Gmsh 4.14.0 
ASCII
DATASET UNSTRUCTURED_GRID
POINTS 88 double
0 0 0
1 0 0
1 1 0
0 1 0
0 0 1
1 0 1
1 1 1
0 1 1
1 0 0
2 0 0
2 1 0
1 1 0
1 0 1
2 0 1
2 1 1
1 1 1
1 1 0
2 1 0
2 2 0
1 2 0
1 1 1
2 1 1
2 2 1
1 2 1
0 1 0
1 1 0
1 2 0
0 2 0
0 1 1
1 1 1
1 2 1
0 2 1
0 0 0.3333333333333333
0 0 0.6666666666666666
1 0 0.3333333333333333
1 0 0.6666666666666666
1 1 0.3333333333333333
1 1 0.6666666666666666
0 1 0.3333333333333333
0 1 0.6666666666666666
1 0 0.25
1 0 0.5
1 0 0.75
2 0 0.25
2 0 0.5
2 0 0.75
2 1 0.25
2 1 0.5
2 1 0.75
1 1 0.25
1 1 0.5
1 1 0.75
1 1 0.2
1 1 0.4
1 1 0.6
1 1 0.8
2 1 0.2
2 1 0.4
2 1 0.6
2 1 0.8
2 2 0.2
2 2 0.4
2 2 0.6
2 2 0.8
1 2 0.2
1 2 0.4
1 2 0.6
1 2 0.8
0 1 0.1666666666666667
0 1 0.3333333333333333
0 1 0.5
0 1 0.6666666666666666
0 1 0.8333333333333334
1 1 0.1666666666666667
1 1 0.3333333333333333
1 1 0.5
1 1 0.6666666666666666
1 1 0.8333333333333334
1 2 0.1666666666666667
1 2 0.3333333333333333
1 2 0.5
1 2 0.6666666666666666
1 2 0.8333333333333334
0 2 0.1666666666666667
0 2 0.3333333333333333
0 2 0.5
0 2 0.6666666666666666
0 2 0.8333333333333334

CELLS 62 382
4 0 1 2 3
4 1 2 36 34
4 34 36 37 35
4 35 37 6 5
4 2 3 38 36
4 36 38 39 37
4 37 39 7 6
4 4 5 6 7
4 8 9 10 11
4 10 11 49 46
4 46 49 50 47
4 47 50 51 48
4 48 51 15 14
4 11 8 40 49
4 49 40 41 50
4 50 41 42 51
4 51 42 12 15
4 12 13 14 15
4 16 17 18 19
4 16 17 56 52
4 52 56 57 53
4 53 57 58 54
4 54 58 59 55
4 55 59 21 20
4 19 16 52 64
4 64 52 53 65
4 65 53 54 66
4 66 54 55 67
4 67 55 20 23
4 20 21 22 23
4 24 25 26 27
4 24 25 73 68
4 68 73 74 69
4 69 74 75 70
4 70 75 76 71
4 71 76 77 72
4 72 77 29 28
4 25 26 78 73
4 73 78 79 74
4 74 79 80 75
4 75 80 81 76
4 76 81 82 77
4 77 82 30 29
4 28 29 30 31
8 0 1 2 3 32 34 36 38
8 32 34 36 38 33 35 37 39
8 33 35 37 39 4 5 6 7
8 8 9 10 11 40 43 46 49
8 40 43 46 49 41 44 47 50
8 41 44 47 50 42 45 48 51
8 42 45 48 51 12 13 14 15
8 16 17 18 19 52 56 60 64
8 52 56 60 64 53 57 61 65
8 53 57 61 65 54 58 62 66
8 54 58 62 66 55 59 63 67
8 55 59 63 67 20 21 22 23
8 24 25 26 27 68 73 78 83
8 68 73 78 83 69 74 79 84
8 69 74 79 84 70 75 80 85
8 70 75 80 85 71 76 81 86
8 71 76 81 86 72 77 82 87
8 72 77 82 87 28 29 30 31

CELL_TYPES 62
9
9
9
9
9
9
9
9
9
9
9
9
9
9
9
9
9
9
9
9
9
9
9
9
9
9
9
9
9
9
9
9
9
9
9
9
9
9
9
9
9
9
9
9
12
12
12
12
12
12
12
12
12
12
12
12
12
12
12
12
12
12

CELL_DATA 62
SCALARS CellEntityIds int 1
LOOKUP_TABLE default
5
1
1
1
1
1
1
6
5
4
4
4
4
3
3
3
3
6
5
2
2
2
2
2
2
2
2
2
2
6
5
3
3
3
3
3
3
4
4
4
4
4
4
6
1
1
1
2
2
2
2
3
3
3
3
3
4
4
4
4
4
4
