<VTKFile type="UnstructuredGrid" version="1.0">
<UnstructuredGrid>
<FieldData>
<DataArray type="Float64" Name="TIME" NumberOfTuples="1" format="ascii" RangeMin="0" RangeMax="0">
0
</DataArray>
</FieldData>
<Piece NumberOfPoints="1601" NumberOfCells="6485">
<Points>
<DataArray type="Float64" NumberOfComponents="3" format="ascii">
500 500 1500 437.5 500 1500 375 500 1500 312.5
500 1500 250.195 500 1500 187.5 500 1500 125 500
1500 62.5 500 1500 0 500 1500 354.756 439.495 1500
293.199 439.234 1500 414.203 439.024 1500 230.332 438.679 1500 165.43
438.262 1500 467.343 438.021 1500 94.7648 437.955 1500 500 437.5
1500 0 437.5 1500 338.303 380.303 1500 398.009 380.001 1500
276.65 378.768 1500 453.492 377.191 1500 212.83 377.179 1500 145.711
376.179 1500 72.6727 375.578 1500 500 375 1500 0 375
1500 384.626 324.853 1500 325.262 321.91 1500 443.515 319.969 1500
262.983 318.063 1500 198.511 315.32 1500 131.957 313.873 1500 64.739
313.145 1500 500 312.5 1500 0 312.5 1500 427.264 277.634
1500 375.848 270.249 1500 314.686 262.15 1500 250.985 256.297 1500
186.64 253.039 1500 122.571 251.648 1500 59.9763 251.017 1500 0
250.195 1500 500 249.805 1500 433.812 226.126 1500 369.458 210.078
1500 303.596 199.159 1500 238.495 193.179 1500 175.167 190.597 1500
114.091 190.042 1500 55.8089 189.596 1500 500 187.5 1500 0
187.5 1500 430.231 161.854 1500 358.263 142.33 1500 288.748 133.187
1500 105.402 130.36 1500 52.7962 129.374 1500 223.889 129.24 1500
162.509 128.53 1500 500 125 1500 0 125 1500 419.768
80.2849 1500 98.0399 78.3111 1500 337.381 70.31 1500 147.652 67.001
1500 269.919 66.2516 1500 56.6013 65.7976 1500 206.948 65.1101 1500
500 62.5 1500 0 62.5 1500 500 0 1500 437.5
0 1500 375 0 1500 312.5 0 1500 249.805 0
1500 187.5 0 1500 125 0 1500 62.5 0 1500
0 0 1500 500 439.301 1468.29 235.918 165.715 1460.94 398.891
377.651 1459.27 122.409 200.998 1458.95 115.87 300.105 1457.12 208.955 386.82
1456.41 291.709 194.13 1455.69 389.917 291.099 1455.54 43.7574 106.698 1455.49
215.844 112.114 1453.74 500 382.364 1453.52 296.875 390.626 1453.13 203.125
203.125 1453.13 109.374 109.374 1453.13 392.844 204.204 1451.64 118.602 460.486
1450.13 205.413 298.676 1449.03 293.964 293.236 1446.05 121.241 394.671 1445.26
145.11 500 1444.13 0 145.11 1444.13 86.6107 500 1443.85 0
86.6107 1443.85 468.309 398.083 1443.28 301.58 105.34 1442.41 205.829 500
1442.2 0 205.829 1442.2 500 289.882 1441.84 33.2117 500 1441.61
0 33.2117 1441.61 380.059 100.666 1440.69 353.723 0 1440.24 414.137
0 1440 500 500 1439.94 0 500 1439.94 0 0
1439.94 467.321 0 1439.84 500 229.191 1439.49 291.553 0 1439.48
500 0 1439.06 268.889 500 1438.83 0 268.889 1438.83 500
340.808 1437.14 228.572 0 1436.93 500 162.544 1434.08 336.371 500
1433.36 0 336.371 1433.36 161.384 0 1432.15 500 80.3154 1423.27
419.179 500 1422.85 0 419.179 1422.85 79.4769 0 1422.29 350.491
445.5 1419.36 59.3134 153.043 1417.95 67.4828 433.177 1417.6 500 441.575
1416.94 65.0896 243.776 1415.79 252.019 437.859 1415.77 62.6955 339.741 1414.85
436.122 250.629 1414.09 62.3915 70.9086 1409.59 249.185 159.591 1408.76 447.489
429.321 1408.13 158.057 346.822 1407.75 344.306 341.359 1407.56 251.569 342.645
1406.99 156.621 442.951 1406.59 437.502 343.751 1406.26 343.751 250 1406.26
156.249 250 1406.26 437.502 156.249 1406.26 156.249 156.249 1406.26 156.249
62.4981 1406.26 249.457 249.639 1405.73 253.214 64.6603 1403.74 342.913 154.541
1402.95 426.243 60.2164 1400.72 500 386.848 1400.33 104.061 500 1390.96
0 104.061 1390.96 500 332.85 1390.18 160.925 500 1387.8 0
160.925 1387.8 343.651 51.7535 1386.87 49.1436 500 1386.57 0 49.1436
1386.57 500 274.504 1384.27 221.687 500 1382.33 0 221.687 1382.33
500 0 1380.47 335.774 0 1380.18 397.925 0 1380.01 453.928
0 1379.9 500 500 1379.88 0 500 1379.88 0 0
1379.88 272.77 0 1377.89 500 211.185 1376.71 286.258 500 1374.88
0 286.258 1374.88 208.434 0 1372.04 110.293 396.097 1365.01 500
142.208 1364.97 106.435 202.562 1364.82 204.634 394.87 1363.79 107.502 295.455
1363.51 356.157 500 1363.45 0 356.157 1363.45 109.031 109.196 1363.31
297.149 394.269 1363.29 139.32 0 1361.66 392.087 203.685 1360.27 500
441.521 1360.21 398.198 296.933 1360.17 296.472 203.357 1359.65 390.626 390.626
1359.38 203.125 203.125 1359.38 203.125 109.374 1359.38 15.6227 109.374 1359.38
203.344 297 1359.29 297.168 296.452 1359.07 117.006 466.427 1358.71 296.626
116.039 1356.44 379.934 115.684 1355.4 469.792 386.463 1351.2 66.0192 500
1346.04 0 66.0192 1346.04 500 383.113 1344.74 500 69.9564 1344.28
429.229 500 1343.31 0 429.229 1343.31 68.1342 0 1342.42 114.184
500 1338.06 0 114.184 1338.06 500 323.499 1333.49 171.897 500
1329.31 0 171.897 1329.31 51.1909 154.688 1325.41 500 261.83 1324.14
155.652 445.833 1322.84 233.744 500 1320.44 0 233.744 1320.44 500
500 1320.12 0 500 1320.12 0 0 1320.12 386.643 0
1320.02 445.483 0 1319.7 500 0 1319.53 323.332 0 1319.52
65.8944 442.116 1318.94 55.6192 65.2824 1318.42 343.281 444.126 1318.26 257.599
0 1316.07 60.29 337.064 1315.79 156.293 345.75 1315.67 154.353 156.234
1315.17 160.784 60.2998 1314.62 154.344 249.73 1314.19 250.156 345.959 1313.89
344.753 344.319 1313.37 500 197.917 1313.19 246.527 451.538 1312.98 48.7951
245.833 1312.87 249.629 156.776 1312.7 249.889 250.118 1312.61 437.502 437.502
1312.51 437.502 250 1312.51 343.751 250 1312.51 437.502 156.249 1312.51
343.751 62.4981 1312.51 250 62.4981 1312.51 343.116 157.161 1311.75 434.816
345.9 1311.57 298.732 500 1309.91 0 298.732 1309.91 423.838 61.2916
1308.94 191.655 0 1307.43 500 439.249 1300.89 500 131.954 1298.09
60.1158 500 1295.85 0 60.1158 1295.85 366.046 500 1295.6 0
366.046 1295.6 126.866 0 1293.63 500 377.021 1285.01 117.848 500
1279.63 0 117.848 1279.63 500 65.3954 1279.29 433.748 500 1277.81
0 433.748 1277.81 63.1459 0 1276.93 500 314.128 1273.57 104.444
116.032 1270.7 116.164 394.867 1270.68 105.387 201.334 1268.53 201.651 394.443
1268.24 393.08 385.194 1267.6 178.491 500 1267.56 0 178.491 1267.56
106.371 298.099 1267.28 298.476 394.32 1266.76 202.73 297.608 1266.68 200.745
107.934 1266.62 202.247 202.909 1266.58 297.318 297.494 1265.95 390.626 109.374
1265.63 296.924 203.062 1265.6 298.748 108.065 1265.44 392.559 297.949 1265.4
377.895 0 1265.36 391.618 202.543 1264.68 439.496 0 1264.03 500
251.903 1263.63 500 0 1260.94 500 500 1259.77 0 500
1259.77 0 0 1259.77 316.164 0 1259.58 241.483 500 1257.31
0 241.483 1257.31 252.406 0 1254.74 500 189.995 1251.04 305.881
500 1245.83 0 305.881 1245.83 188.833 0 1245.2 59.2158 500
1238.27 0 59.2158 1238.27 500 435.838 1237.8 500 127.134 1235.17
125.636 0 1231.77 370.964 500 1231.76 0 370.964 1231.76 141.588
56.6239 1231.24 56.3943 356.623 1231.12 355.233 442.984 1230.38 425.087 0
1223.75 58.4544 152.866 1223.5 153.004 441.225 1223.26 500 368.951 1221.57
354.065 53.4649 1221.35 154.226 155.75 1221.14 155.692 345.467 1221.04 119.198
500 1219.44 0 119.198 1219.44 249.706 155.568 1219.17 345.12 345.134
1219.11 250.047 250.008 1218.97 156.82 250.069 1218.83 250.063 343.22 1218.82
343.922 156.106 1218.78 437.502 437.502 1218.75 250 437.502 1218.75 437.502
250 1218.75 62.4981 250 1218.75 250 62.4981 1218.75 344.041 249.996
1218.62 500 63.5471 1217.59 435.808 156.734 1216.22 62.7371 0 1216.16
435.862 500 1215.89 0 435.862 1215.89 61.6485 65.1424 1215.29 65.1418
437.678 1215.17 373.299 0 1214.46 500 304.266 1214.41 431.416 66.665
1212.49 414.81 486.98 1211.62 444.49 351.157 1210.62 500 245.554 1204.93
182.209 500 1203.51 0 182.209 1203.51 312.306 0 1201.78 500
500 1200.29 0 500 1200.29 0 0 1200.29 500 0
1198.83 250.092 0 1195.54 245.765 500 1194.14 0 245.765 1194.14
500 187.089 1190.05 187.699 0 1185.11 309.5 500 1183.22 0
309.5 1183.22 59.6526 500 1178.27 0 59.6526 1178.27 434.746 0
1176.07 500 125.668 1173.94 106.943 109.244 1173.84 200.572 107.051 1173.83
106.206 299.831 1173.38 109.349 392.719 1173.12 203.01 202.912 1172.42 299.799
394.194 1172.36 391.983 202.165 1172.28 203.176 296.577 1172.04 116.424 203.167
1171.92 203.14 383.578 1171.92 297.049 202.84 1171.91 297.141 297.382 1171.83
125.185 0 1171.52 385.303 393.251 1171.23 389.718 297.634 1170.82 298.604
107.278 1170.75 391.514 108.722 1170.54 373.269 500 1169.95 0 373.269
1169.95 500 430.23 1167.86 468.173 296.287 1167.11 500 294.118 1164.4
373.589 0 1160.24 500 353.161 1158.67 120.783 500 1157.61 0
120.783 1157.61 500 63.2994 1157.1 62.6184 0 1156.14 436.816 500
1155.16 0 436.816 1155.16 310.847 0 1145.74 500 247.75 1144.76
500 500 1140.23 0 500 1140.23 0 0 1140.23 184.477
500 1139.5 0 184.477 1139.5 500 0 1139.06 169.069 443.422
1138.35 56.651 168.438 1138.26 249.568 0 1137.34 247.898 500 1131.81
0 247.898 1131.81 500 187.633 1128.52 155.361 156.248 1126.16 156.681
344.947 1126 187.546 0 1125.82 155.198 250.855 1125.3 249.963 155.997
1125.09 344.232 156.043 1125.05 249.933 250.004 1125.04 437.502 437.502 1125
437.502 343.751 1125 437.502 250 1125 437.502 62.4981 1125 343.751
62.4981 1125 250 62.4981 1125 62.4981 62.4981 1125 343.165 249.996
1124.89 250.774 344.921 1124.87 343.5 344.631 1124.25 49.0027 253.723 1124.01
254.078 451.042 1123.69 155.543 55.7546 1123.06 443.934 155.85 1122.65 311.144
500 1121.75 0 311.144 1121.75 60.3211 433.75 1120.7 436.503 0
1120.08 53.4992 347.446 1119.94 60.6695 500 1118.43 0 60.6695 1118.43
353.736 446.223 1114.38 500 125.921 1113.66 125.192 0 1111.8 500
455.129 1110.54 374.272 500 1109.1 0 374.272 1109.1 500 398.519
1106.02 373.82 0 1103.37 500 321.155 1098.79 122.606 500 1097.44
0 122.606 1097.44 500 62.5264 1096.52 62.675 0 1096.2 437.23
500 1094.73 0 437.23 1094.73 311.36 0 1089.53 28.6526 387.813
1089.35 440.287 389.31 1086.39 500 0 1080.47 500 500 1079.88
0 500 1079.88 0 0 1079.88 500 251.997 1079.7 117.278
391.573 1079.3 388.508 383.605 1079.23 249.943 0 1079.02 105.941 203.763
1078.96 204.321 393.986 1078.87 297.683 107.324 1078.78 202.384 203.082 1078.24
383.332 296.452 1078.15 203.125 296.875 1078.13 390.626 203.125 1078.13 109.374
109.374 1078.13 296.71 202.755 1078.12 106.153 300.263 1078.06 296.519 297.273
1077.95 202.074 107.758 1077.39 185.821 500 1077.04 0 185.821 1077.04
[...]
<PointData>
<DataArray type="Float64" Name="ux" NumberOfComponents="1" format="ascii">
9.79891e-015 2.4032e-009 -2.38958e-010 -1.1945e-010 -5.85301e-009 -5.09406e-009 -2.14186e-009 1.14476e-009 -6.53629e-015 2.49597e-009
2.65312e-010 -2.07096e-010 -1.73383e-009 -3.45612e-009 9.9258e-010 -1.40971e-009 6.90198e-015 -2.52448e-014 2.50433e-009 4.60945e-009
5.28783e-010 1.40111e-009 -5.48463e-011 -1.84037e-009 -8.88541e-010 1.33069e-014 -2.59644e-014 1.10597e-009 2.27339e-009 1.72054e-009
1.28184e-010 8.99202e-010 -7.24386e-009 9.38405e-010 2.21061e-014 -2.14918e-014 -1.68741e-009 -2.70192e-009 -3.24154e-010 9.04892e-010
-8.24293e-010 1.46682e-009 -2.24279e-009 -1.95533e-014 1.92243e-014 -1.79814e-010 -1.9438e-010 -4.03779e-009 2.03983e-009 -2.37612e-009
-6.26933e-009 -7.31656e-010 2.11537e-014 -1.84398e-014 6.08458e-010 -1.93005e-009 -7.93003e-010 -4.95782e-009 -3.46264e-009 4.20759e-009
-9.08749e-010 2.56698e-014 -1.7892e-014 -7.49259e-010 -2.81415e-009 -5.81598e-010 -2.12161e-009 9.22802e-010 -1.7581e-009 -2.97179e-009
2.52235e-014 -1.77803e-014 6.63206e-015 -5.47411e-011 -1.01959e-009 1.77739e-009 3.09809e-009 -4.90577e-009 -6.23942e-009 -2.6278e-009
-9.82785e-015 2.85121e-014 -9.45706e-010 -1.91796e-009 1.06948e-009 -1.22594e-009 5.14648e-010 -1.54831e-009 3.17713e-009 -4.27497e-010
-1.95133e-009 2.95365e-014 -1.69425e-009 7.32636e-011 3.95233e-009 3.55628e-009 -3.32524e-011 -2.8554e-010 -4.71014e-009 2.23855e-009
1.10188e-009 -3.46198e-014 -4.00581e-009 -3.28937e-014 -6.99466e-010 -2.08848e-009 3.74448e-009 -3.75334e-014 3.39432e-014 -1.93242e-009
-2.86915e-014 1.87934e-009 -4.54185e-010 1.12359e-009 1.77732e-014 -2.53009e-014 -6.94661e-015 -7.14015e-010 4.01118e-014 -1.64562e-009
2.50669e-014 4.10949e-009 -4.16413e-014 2.31794e-014 -4.89211e-009 4.92478e-014 -1.25976e-009 -5.03538e-014 3.80851e-009 6.62824e-014
-1.67193e-009 -6.74048e-014 1.9826e-009 -4.06358e-009 2.35815e-009 -3.59324e-010 3.29525e-014 8.34166e-010 1.60038e-009 -1.51339e-009
2.22228e-009 1.88235e-009 -4.01747e-009 -1.78202e-009 2.7585e-009 -1.267e-009 -1.61106e-009 3.43526e-009 -1.12642e-009 9.94569e-010
9.63385e-010 5.16277e-010 2.5798e-009 4.26639e-009 -4.79705e-009 -3.56784e-009 2.33217e-009 8.15863e-010 2.95684e-014 -2.73254e-010
-2.95605e-014 3.07204e-014 2.70963e-009 -3.45533e-014 -5.32059e-010 -4.76111e-010 -2.98058e-014 3.67732e-014 3.68934e-009 -3.89943e-014
2.5892e-014 -1.07334e-009 5.46593e-010 2.61075e-010 1.79702e-014 -2.62585e-014 -1.34826e-014 -1.51897e-009 4.23228e-014 1.19025e-009
-4.40142e-014 2.61995e-010 1.67376e-009 4.97769e-014 2.02105e-009 2.23102e-009 1.15827e-009 -7.91225e-010 -5.12538e-014 3.39083e-009
-8.29263e-010 3.99041e-009 9.24597e-010 3.49886e-014 3.11152e-010 -1.64812e-009 -1.4597e-009 -9.05599e-010 -5.03135e-011 3.39749e-010
-3.53357e-011 -1.33077e-009 1.81138e-009 -6.04372e-010 1.32463e-009 -2.29667e-010 1.48828e-010 -2.35162e-014 3.47719e-014 5.04102e-014
-2.03866e-009 -5.13314e-014 1.91516e-009 1.3262e-009 -3.10666e-014 3.63534e-014 1.97493e-009 -3.70197e-014 1.3926e-009 3.87407e-014
1.71731e-009 2.07651e-009 -4.0741e-014 1.86683e-014 -2.22157e-014 -2.23553e-014 3.96737e-010 3.86606e-010 2.18151e-014 -5.52317e-010
8.54197e-010 1.67562e-009 -2.88481e-010 -2.36342e-010 7.56536e-010 1.52651e-009 1.04029e-009 1.41889e-009 9.35043e-010 4.36585e-010
-5.3655e-010 4.15875e-014 1.40332e-009 9.29355e-010 -5.97482e-010 -4.97195e-010 -8.39529e-010 1.64814e-010 -3.56718e-010 4.55521e-010
1.29783e-010 -1.99847e-010 3.87561e-011 -3.13113e-010 7.48111e-010 -4.38667e-014 6.27404e-010 9.54015e-010 3.85186e-014 4.36583e-014
9.29964e-010 -3.36669e-014 -6.57249e-010 -4.53951e-014 1.76498e-009 3.94493e-014 1.37314e-009 -3.63519e-014 4.26508e-014 -4.94354e-010
-4.38223e-014 1.25433e-009 3.86083e-014 1.21273e-009 1.078e-009 1.08365e-009 1.17881e-009 -2.82106e-010 1.51701e-009 -3.99274e-014
1.04663e-009 4.6534e-010 7.59594e-010 5.31757e-010 3.56566e-010 -4.82903e-012 3.26045e-010 -1.35221e-010 -9.2068e-011 -1.87529e-010
1.83168e-010 1.33117e-010 1.70874e-010 3.77796e-014 2.05111e-014 1.99475e-014 -2.06818e-014 -1.84212e-014 -1.76585e-010 1.25842e-009
-4.17091e-014 3.12096e-010 3.9128e-014 5.41801e-010 -4.23741e-014 1.00093e-009 6.16087e-010 -3.66279e-014 4.36335e-014 4.0501e-014
1.22012e-009 -1.19056e-010 -4.21647e-014 1.16681e-009 4.192e-010 -1.26817e-010 1.32893e-010 6.02689e-010 1.06299e-009 4.35515e-014
1.60948e-010 7.77364e-010 8.6737e-010 9.84037e-010 -3.9011e-014 2.35083e-010 8.3837e-011 3.37729e-010 7.74357e-010 6.12852e-010
1.12661e-010 -1.4685e-010 7.68208e-010 6.07386e-012 5.47134e-010 3.58622e-010 8.60686e-011 4.05963e-014 1.27008e-010 7.49667e-010
-1.55622e-010 -4.10316e-014 6.23483e-010 5.87802e-010 1.3702e-010 3.57519e-014 1.19848e-010 -1.38023e-010 -7.11539e-011 3.42794e-014
9.63193e-010 -4.16191e-014 1.70804e-010 2.21221e-014 -2.00072e-014 -1.85871e-014 2.01459e-014 4.66077e-010 8.28524e-010 -4.15771e-014
3.84714e-014 8.10602e-010 3.87076e-010 -4.11017e-014 4.40108e-010 -3.7847e-014 8.90465e-011 3.9438e-014 6.88048e-010 5.45164e-010
5.54535e-010 5.95292e-010 5.11717e-010 3.52149e-010 1.18957e-010 6.02085e-010 6.1826e-010 6.66381e-010 2.48422e-010 3.13914e-010
8.55247e-010 -5.94835e-012 9.44171e-011 2.41381e-010 1.49497e-010 6.27167e-012 -4.05883e-014 5.10559e-014 7.59575e-012 2.78187e-014
1.44425e-010 4.22495e-014 7.16579e-010 -3.96637e-014 3.97062e-014 4.52453e-010 -1.36784e-011 -4.00193e-014 2.37036e-010 3.87003e-014
1.77777e-014 -1.98418e-014 -1.8897e-014 7.24556e-010 -4.12524e-014 1.96199e-014 6.65978e-010 3.26003e-010 4.31025e-010 5.6282e-010
-4.08019e-014 4.01224e-014 5.02992e-010 5.29487e-010 5.47294e-010 4.91866e-010 3.70209e-010 2.04991e-010 3.98183e-010 2.02571e-011
3.54423e-011 9.01354e-011 9.32102e-011 2.08335e-010 3.87534e-010 3.59107e-010 2.17001e-010 4.48991e-010 2.10606e-010 2.69727e-010
4.80098e-010 5.11927e-010 7.86259e-011 3.33666e-010 -4.02294e-014 2.76473e-010 7.74761e-011 2.35528e-010 3.13146e-010 -3.85084e-014
2.11947e-010 4.01332e-014 5.13733e-010 2.58589e-014 1.5675e-010 -3.98548e-014 4.13413e-014 1.62455e-010 5.4492e-014 5.00409e-010
-4.00687e-014 3.98589e-014 2.82705e-010 3.84825e-011 -3.96157e-014 2.54786e-010 1.12389e-010 6.54321e-011 1.92935e-014 1.47841e-014
-1.97547e-014 -1.92787e-014 4.57198e-014 3.79223e-010 1.40415e-010 3.54429e-010 3.42912e-010 4.68261e-010 2.77412e-010 3.8646e-010
1.58825e-010 4.06403e-010 1.44358e-010 3.47486e-010 2.82675e-010 3.31115e-010 3.00625e-010 3.87623e-010 5.09619e-010 -4.07371e-014
1.52006e-010 3.16138e-010 4.33682e-010 -4.00527e-014 4.24099e-010 4.2003e-014 7.73593e-011 2.98632e-010 -3.9711e-014 3.39824e-014
2.13659e-010 -3.90558e-014 3.88218e-010 4.17426e-014 1.63551e-010 -3.94924e-014 1.62597e-010 5.48866e-011 1.64918e-010 4.45041e-014
7.43388e-011 2.16362e-010 3.89565e-014 3.38016e-010 -3.96748e-014 6.74412e-011 -3.93684e-014 2.00746e-010 2.29208e-010 2.07575e-010
2.07716e-010 3.27638e-010 3.11336e-010 3.46504e-010 8.18079e-011 1.67654e-010 3.02973e-010 3.04524e-010 2.94094e-010 3.27666e-010
1.99627e-010 3.10859e-010 3.18766e-010 1.74315e-010 1.79803e-010 3.48922e-010 1.57952e-010 2.05864e-010 8.84998e-011 8.38356e-011
4.77994e-014 2.92462e-010 1.75138e-014 -1.96144e-014 1.78311e-014 -1.92035e-014 3.63782e-010 -3.98128e-014 4.43401e-014 3.27939e-010
-3.96182e-014 3.13423e-010 4.53808e-014 8.00114e-011 2.49567e-010 -3.9428e-014 3.81651e-014 1.56706e-010 -3.86799e-014 2.55434e-010
1.48469e-010 -3.92661e-014 4.30628e-014 2.02897e-010 1.45365e-010 2.08583e-010 2.35905e-010 1.32445e-010 2.62079e-010 2.71065e-010
1.2664e-010 2.32176e-010 2.2296e-010 2.62102e-010 2.16819e-010 1.27739e-010 2.04557e-010 1.36696e-010 2.78173e-010 2.05624e-010
7.31115e-011 4.23787e-014 1.35169e-010 3.34621e-014 2.53371e-010 -3.9551e-014 7.14493e-011 -3.90995e-014 2.06123e-010 1.48065e-014
2.34099e-010 1.85684e-014 -1.94288e-014 -1.92389e-014 4.3817e-014 2.75316e-010 -3.98245e-014 2.35708e-010 -3.94067e-014 4.47415e-014
2.25249e-010 1.00859e-010 1.53877e-010 5.5952e-011 1.92016e-010 -3.92573e-014 9.16882e-011 2.00364e-010 6.75745e-011 6.74223e-011
2.24961e-010 9.96398e-011 7.08526e-011 1.08663e-010 6.4453e-011 2.07442e-010 1.99332e-010 1.57032e-010 1.59611e-010 1.54955e-010
2.1159e-010 2.1779e-010 1.96622e-010 3.90826e-014 9.95177e-011 2.06736e-010 1.07572e-010 -3.88946e-014 2.04354e-010 1.62504e-010
1.85189e-010 5.66649e-011 5.13258e-014 1.89381e-010 1.2705e-010 -3.91051e-014 3.95089e-014 2.55737e-014 1.19712e-010 9.42228e-011
5.55577e-011 -3.89373e-014 1.70222e-010 -3.93886e-014 4.14329e-014 1.63918e-010 1.91239e-014 -1.94848e-014 -1.92341e-014 1.75706e-010
1.77654e-014 1.9342e-010 -3.94632e-014 4.14003e-014 1.16411e-010 1.27918e-010 9.66335e-011 1.00058e-010 1.78589e-010 1.71283e-010
1.23284e-010 9.58119e-011 1.74258e-010 1.58916e-010 1.24416e-010 1.7686e-010 1.64697e-010 1.55551e-010 1.84126e-010 -3.92793e-014
1.01766e-010 1.57219e-010 1.69603e-010 1.67462e-010 3.75659e-014 5.38436e-011 1.53582e-010 -3.91485e-014 7.31757e-011 -3.88167e-014
3.97035e-014 4.04066e-014 1.2518e-010 4.96947e-014 2.60349e-014 1.05777e-010 -3.90572e-014 9.30055e-011 7.1542e-011 1.22417e-010
-3.95695e-014 1.1186e-010 5.27272e-011 -3.9098e-014 4.27981e-014 1.19869e-010 4.43875e-011 1.26153e-010 4.60834e-011 6.76145e-011
1.2995e-010 1.1072e-010 5.51453e-011 6.22212e-011 1.08713e-010 1.26053e-010 1.46851e-010 4.37942e-011 1.07723e-010 1.38538e-010
1.2259e-010 5.67637e-011 1.39657e-010 6.49194e-011 1.42512e-010 1.07799e-010 1.40963e-010 4.6733e-011 1.96349e-014 -1.95653e-014
2.2109e-014 -1.94612e-014 1.2151e-010 1.36123e-010 1.32515e-010 1.40935e-010 -3.9725e-014 4.47026e-011 4.01416e-014 1.39599e-010
-3.91984e-014 3.26903e-014 1.2563e-010 3.24035e-014 1.1764e-010 -3.91154e-014 4.58895e-011 4.10456e-014 5.6218e-011 -3.91334e-014
4.50942e-014 8.87947e-011 7.95931e-011 -3.90965e-014 7.66859e-011 4.36769e-014 7.46155e-011 2.24247e-011 1.07253e-010 7.18572e-011
1.1007e-010 7.84409e-011 6.84774e-011 1.05317e-010 1.10892e-010 1.05214e-010 7.95422e-011 4.23955e-011 1.08013e-010 1.10393e-010
6.53472e-011 1.03907e-010 7.54601e-011 6.65358e-011 3.97492e-011 -3.91222e-014 1.12383e-010 9.38402e-011 -3.94711e-014 9.75484e-011
5.03287e-014 1.99107e-014 -1.96585e-014 2.06032e-014 -1.94279e-014 1.06338e-010 -3.93683e-014 3.19304e-014 1.00092e-010 4.19722e-014
9.89127e-011 -3.91767e-014 3.29463e-014 8.66266e-011 -3.915e-014 2.89552e-011 3.89906e-011 -3.89744e-014 3.26029e-011 3.961e-014
2.7581e-011 8.48205e-011 9.01422e-011 3.32358e-011 8.12475e-011 3.36665e-011 7.3359e-011 3.22003e-011 7.71272e-011 9.13607e-011
7.28069e-011 7.15574e-011 7.13093e-011 7.63397e-011 9.08842e-011 3.50771e-011 9.20607e-011 8.97047e-011 3.96999e-011 8.68292e-011
3.92277e-011 7.71183e-011 6.99207e-011 5.71758e-011 6.04835e-011 -3.9173e-014 3.12824e-011 2.82387e-011 5.35069e-011 4.10416e-014
3.11168e-011 6.90318e-011 6.15773e-011 -3.94874e-014 2.71748e-011 -3.9317e-014 5.56247e-014 2.59022e-014 7.1524e-011 1.11507e-014
-1.96734e-014 2.01001e-014 -1.95342e-014 4.02807e-014 7.55948e-011 -3.95632e-014 3.7868e-014 7.54515e-011 -3.91957e-014 7.31703e-011
5.71768e-014 7.06258e-011 6.87464e-011 4.56239e-011 4.21344e-011 4.33447e-011 4.26229e-011 6.70777e-011 4.76958e-011 6.94532e-011
6.76386e-011 6.87846e-011 4.41296e-011 6.51353e-011 6.85664e-011 4.58762e-011 4.56771e-011 6.63138e-011 -3.92017e-014 2.39567e-011
5.58764e-011 2.6725e-011 -3.99688e-014 4.06741e-014 6.40426e-011 3.06604e-011 4.82717e-011 -3.92116e-014 4.1562e-011 4.03819e-014
6.11755e-011 2.73198e-011 -3.91536e-014 4.52813e-011 -4.13325e-014 5.86875e-011 6.03746e-011 2.13207e-011 5.1576e-014 2.36986e-011
2.32801e-011 4.67905e-011 2.13183e-011 1.88806e-014 -1.94622e-014 1.99241e-014 -1.93607e-014 4.66125e-011 5.10721e-011 4.80796e-011
4.74979e-011 4.53346e-011 5.52582e-011 4.58227e-011 5.65162e-011 4.81589e-011 5.63465e-011 2.19928e-011 2.16093e-011 1.89214e-011
2.12357e-011 4.66839e-011 2.12068e-011 4.05058e-014 5.6892e-011 -4.01935e-014 4.09367e-014 4.32397e-011 5.66385e-011 -3.92207e-014
4.98323e-011 2.07901e-011 5.47168e-011 4.41485e-014 4.99124e-011 5.02134e-011 -3.923e-014 2.69778e-014 1.95901e-011 3.98302e-011
2.11554e-011 -4.33795e-014 4.12622e-014 3.60869e-011 -3.91951e-014 1.89782e-011 4.01735e-014 3.12673e-011 1.88548e-011 -3.90915e-014
1.06711e-011 4.32726e-011 3.03142e-011 3.06844e-011 2.70873e-011 2.91306e-011 4.19681e-011 4.22485e-011 4.14226e-011 2.8547e-011
4.2953e-011 2.75004e-011 4.26647e-011 2.81401e-011 2.71063e-011 4.22661e-011 4.22039e-011 3.38364e-011 -4.56198e-014 2.78673e-011
3.96162e-011 1.78506e-014 -1.96771e-014 -1.94378e-014 1.97677e-014 4.2367e-014 3.8913e-011 -4.06122e-014 3.56261e-011 4.49381e-014
3.29199e-014 3.34913e-014 4.1117e-011 -3.92426e-014 3.92161e-011 4.19459e-014 3.72886e-011 3.57139e-011 -3.9247e-014 3.896e-011
1.19068e-011 1.19855e-011 3.63904e-011 2.71612e-011 4.04857e-014 1.25269e-011 2.99516e-011 2.64785e-011 -3.92257e-014 1.37293e-011
2.90463e-011 2.98518e-011 2.91115e-011 2.92226e-011 2.93855e-011 3.45764e-011 3.46808e-011 2.8376e-011 2.88312e-011 3.50439e-011
1.37185e-011 1.2895e-011 1.396e-011 2.76134e-011 1.43478e-011 2.94728e-011 1.2851e-011 1.34564e-011 1.19654e-011 1.37524e-011
2.22113e-011 3.96291e-014 1.12096e-011 -5.20725e-014 1.43242e-011 -3.93694e-014 2.26435e-011 -4.53669e-014 1.95986e-014 1.76284e-014
-1.95945e-014 -1.09307e-014 3.68607e-014 3.50547e-014 3.99811e-014 2.94105e-011 -3.98627e-014 2.69964e-011 4.11307e-014 2.88386e-011
3.04859e-011 -3.92648e-014 4.04102e-014 2.73194e-011 2.79619e-011 -3.92518e-014 2.69255e-011 2.73096e-011 2.68249e-011 1.67009e-011
2.59325e-011 8.96994e-012 1.00709e-011 2.5922e-011 2.60314e-011 2.61502e-011 1.71281e-011 2.52344e-011 1.7328e-011 1.87412e-011
2.61588e-011 1.80823e-011 2.2491e-011 1.68658e-011 1.75193e-011 1.67238e-011 9.3158e-012 1.96e-011 3.98021e-014 2.02411e-011
-3.91929e-014 1.03145e-011 3.94193e-014 1.05781e-011 -3.89728e-014 1.64215e-011 3.32819e-014 3.50002e-014 8.46248e-012 -4.36927e-014
1.86074e-014 -1.9505e-014 1.96709e-014 -1.95006e-014 6.8703e-012 1.63277e-011 -4.05602e-014 3.825e-014 2.12397e-011 -3.92217e-014
2.01055e-011 8.01408e-012 1.85819e-011 3.99251e-014 9.10317e-012 2.23299e-011 -3.92727e-014 2.15371e-011 1.77662e-011 1.73462e-011
1.7584e-011 1.76492e-011 7.3136e-012 1.77607e-011 1.78224e-011 2.18767e-011 2.14286e-011 2.13291e-011 8.31709e-012 7.48843e-012
2.1022e-011 1.78065e-011 2.11838e-011 6.92314e-012 1.81919e-011 1.76076e-011 7.3388e-012 8.70883e-012 3.97042e-014 1.90194e-011
1.94594e-011 -3.92213e-014 8.11046e-012 7.5717e-012 1.32899e-011 3.94712e-014 1.39195e-011 -3.91208e-014 2.5354e-014 1.24696e-011
7.26461e-012 3.93696e-014 7.83679e-012 -3.91511e-014 3.2407e-014 3.5178e-012 1.12473e-011 1.62157e-011 1.60391e-011 1.01455e-011
1.59555e-011 1.04651e-011 1.59954e-011 1.05024e-011 1.57523e-011 1.58742e-011 1.04056e-011 1.58729e-011 1.61407e-011 1.03999e-011
9.95486e-012 1.16564e-011 1.96914e-014 6.65013e-012 -3.95433e-014 2.50343e-014 -1.9491e-014 -1.95675e-014 1.25163e-011 -3.91171e-014
3.81743e-014 1.61581e-011 -3.92545e-014 1.53318e-011 3.95348e-014 1.62098e-011 -3.92543e-014 1.57174e-011 3.94269e-014 1.39733e-011
1.41563e-011 -3.9166e-014 5.23365e-012 3.49013e-014 1.0175e-011 1.05247e-011 -3.90521e-014 3.93019e-014 1.13497e-011 4.86759e-012
1.1205e-011 5.0267e-012 1.33644e-011 4.42071e-012 1.07787e-011 1.31975e-011 1.3084e-011 1.08029e-011 1.09791e-011 5.98157e-012
1.10951e-011 1.29751e-011 1.08407e-011 3.66164e-014 5.91584e-012 -3.88279e-014 1.29342e-011 1.09562e-011 3.92444e-014 4.71994e-012
1.07235e-011 9.29816e-012 4.08303e-012 4.16523e-012 5.01163e-012 4.13332e-012 1.09635e-011 4.39193e-012 5.63284e-012 1.95111e-014
-1.93482e-014 -1.93281e-014 4.76663e-012 -3.91006e-014 1.96052e-014 8.99014e-012 -3.92697e-014 3.89807e-014 1.19241e-011 -3.92842e-014
1.1286e-011 3.93896e-014 1.19993e-011 -3.92238e-014 1.15505e-011 1.07476e-011 1.10134e-011 -3.91106e-014 3.92566e-014 2.60585e-012
3.84542e-014 4.2725e-012 9.96769e-012 9.7301e-012 6.39065e-012 7.74837e-012 6.52541e-012 6.28182e-012 6.84246e-012 8.00343e-012
-3.89932e-014 3.91043e-014 9.86165e-012 9.78394e-012 9.87833e-012 9.7078e-012 9.80439e-012 6.25265e-012 9.69155e-012 5.93102e-012
6.35335e-012 6.17999e-012 3.91603e-014 3.93255e-012 3.94242e-012 -3.90121e-014 3.90015e-014 7.05677e-012 1.99731e-014 -1.97831e-014
-1.9769e-014 1.94426e-014 3.21665e-012 -3.94405e-014 6.62742e-012 -3.92947e-014 3.93773e-014 8.38376e-012 -3.92661e-014 8.27728e-012
2.97522e-012 3.92376e-014 8.57221e-012 8.81082e-012 -3.91723e-014 8.48567e-012 2.35211e-012 6.66586e-012 8.18454e-012 6.65479e-012
7.44988e-012 6.71008e-012 7.96814e-012 3.30845e-012 7.70918e-012 -3.90297e-014 2.68111e-012 8.12881e-012 6.5951e-012 6.5425e-012
3.90202e-014 6.54707e-012 6.54191e-012 6.68652e-012 2.7579e-012 2.70415e-012 7.79704e-012 3.98513e-014 6.39311e-012 6.40785e-012
2.76777e-012 2.69831e-012 2.33822e-012 2.90008e-012 5.50047e-012 3.12765e-012 5.71855e-012 -3.89437e-014 3.87942e-014 2.83742e-012
2.62645e-012 -3.92211e-014 3.86673e-014 3.93613e-014 5.03554e-012 1.9414e-014 2.45215e-012 -3.8924e-014 1.99111e-014 -1.96047e-014
-1.95584e-014 4.71255e-012 -3.91942e-014 3.88617e-014 6.19827e-012 3.83849e-012 6.12311e-012 -3.91673e-014 3.93366e-012 3.97671e-012
6.08143e-012 3.8683e-012 3.81719e-012 5.96277e-012 5.91599e-012 5.95617e-012 5.97681e-012 6.034e-012 6.01416e-012 5.86673e-012
6.07181e-012 3.68956e-012 3.80786e-012 5.91998e-012 3.8119e-012 6.08383e-012 6.15123e-012 3.8998e-014 6.40633e-012 -3.9023e-014
5.40152e-012 5.88537e-012 -3.87727e-014 3.86412e-014 4.0194e-014 4.00446e-012 4.33377e-012 -3.85353e-014 3.83177e-014 2.08191e-012
2.39684e-012 -3.83628e-014 3.83583e-014 1.67362e-012 3.94597e-014 4.88807e-012 1.70078e-012 3.98848e-012 2.04775e-012 4.97633e-012
1.80321e-012 1.73373e-012 1.93741e-012 4.84086e-012 4.07891e-012 3.9488e-012 1.87358e-012 4.80039e-012 4.06957e-012 3.91679e-012
4.01269e-012 1.83165e-012 3.96811e-012 3.93017e-012 2.02412e-012 4.79398e-012 3.42799e-012 3.96543e-012 1.64067e-012 1.7132e-012
2.07009e-014 -1.93516e-014 -1.9396e-014 1.93484e-014 1.76778e-012 -3.90726e-014 3.30128e-012 -3.90403e-014 3.66793e-012 4.49001e-012
3.81193e-014 4.36675e-012 -3.89753e-014 4.40975e-012 3.79991e-014 4.55036e-012 -3.86596e-014 4.06505e-012 4.08639e-012 -3.81301e-014
3.79914e-014 2.87431e-012 4.57171e-014 2.95975e-012 -3.75645e-014 3.74246e-014 1.87307e-012 5.79274e-013 3.51863e-012 2.30398e-012
2.37869e-012 2.23435e-012 2.24406e-012 2.30707e-012 3.46529e-012 3.46475e-012 3.43369e-012 2.35367e-012 3.44279e-012 3.3821e-012
3.43766e-012 2.29873e-012 2.23824e-012 3.37264e-012 1.44904e-012 2.2513e-012 1.44824e-012 -3.76302e-014 3.74164e-014 3.3508e-012
3.9856e-014 2.67879e-012 1.18985e-012 1.90894e-014 9.62417e-013 -3.8803e-014 2.41239e-014 -1.91036e-014 -1.94214e-014 2.45889e-012
2.22032e-012 -3.89388e-014 3.14109e-012 3.47771e-014 3.03078e-012 2.97902e-012 -3.86468e-014 3.66435e-014 2.87746e-012 -3.79466e-014
2.48313e-012 2.57764e-012 -3.68575e-014 3.67689e-014 9.81651e-013 1.04752e-012 1.84557e-012 1.88326e-012 -3.55372e-014 2.08735e-012
2.105e-012 3.55605e-014 2.0572e-012 2.5726e-012 2.44811e-012 8.36897e-013 9.74283e-013 8.89226e-013 2.04827e-012 2.07347e-012
2.08437e-012 1.02917e-012 2.44331e-012 2.0387e-012 9.87214e-013 2.12019e-012 2.47753e-012 8.8622e-013 9.32433e-013 2.07678e-012
2.05133e-012 2.39332e-012 8.63056e-013 1.03065e-012 9.03429e-013 -3.51249e-014 3.52639e-014 5.95132e-014 3.33427e-014 1.94947e-012
1.04033e-012 1.74443e-012 2.42284e-014 -1.84825e-014 -1.9459e-014 1.3912e-012 1.85035e-014 6.42344e-013 -3.91249e-014 8.56385e-013
1.17953e-012 -3.87793e-014 3.64369e-014 1.48239e-012 -3.80664e-014 1.02308e-012 3.75521e-013 4.21445e-013 1.50913e-012 -3.66851e-014
3.61081e-014 1.34349e-012 8.7414e-013 1.42069e-012 1.39199e-012 1.26452e-012 1.31287e-012 -3.45286e-014 3.45008e-014 8.65541e-013
7.59328e-013 8.6093e-013 1.26958e-012 8.39553e-013 1.23358e-012 1.29729e-012 8.93925e-013 1.24518e-012 1.18891e-012 9.21617e-013