# vtk DataFile Version 2.0
domain, Created by Gmsh 4.13.1 
ASCII
DATASET UNSTRUCTURED_GRID
POINTS 637 double
0 0 0
2 0 0
2 1 0
0 1 0
0 0 1
2 0 1
2 1 1
0 1 1
0.3333333333333333 0 0
0.6666666666666666 0 0
1 0 0
1.333333333333333 0 0
1.666666666666667 0 0
0.1666666666666667 0 0
0.5 0 0
0.8333333333333333 0 0
1.166666666666667 0 0
1.5 0 0
1.833333333333333 0 0
2 0.3333333333333333 0
2 0.6666666666666666 0
2 0.1666666666666667 0
2 0.5 0
2 0.8333333333333333 0
1.666666666666667 1 0
1.333333333333333 1 0
1 1 0
0.6666666666666667 1 0
0.3333333333333335 1 0
1.833333333333333 1 0
1.5 1 0
1.166666666666667 1 0
0.8333333333333335 1 0
0.5 1 0
0.1666666666666667 1 0
0 0.6666666666666667 0
0 0.3333333333333334 0
0 0.8333333333333334 0
0 0.5 0
0 0.1666666666666667 0
0 0 0.3333333333333333
0 0 0.6666666666666666
0 0 0.1666666666666667
0 0 0.5
0 0 0.8333333333333333
2 0 0.3333333333333333
2 0 0.6666666666666666
2 0 0.1666666666666667
2 0 0.5
2 0 0.8333333333333333
0.3333333333333333 0 1
0.6666666666666666 0 1
1 0 1
1.333333333333333 0 1
1.666666666666667 0 1
0.1666666666666667 0 1
0.5 0 1
0.8333333333333333 0 1
1.166666666666667 0 1
1.5 0 1
1.833333333333333 0 1
2 1 0.3333333333333333
2 1 0.6666666666666666
2 1 0.1666666666666667
2 1 0.5
2 1 0.8333333333333333
2 0.3333333333333333 1
2 0.6666666666666666 1
2 0.1666666666666667 1
2 0.5 1
2 0.8333333333333333 1
0 1 0.3333333333333333
0 1 0.6666666666666666
0 1 0.1666666666666667
0 1 0.5
0 1 0.8333333333333333
1.666666666666667 1 1
1.333333333333333 1 1
1 1 1
0.6666666666666667 1 1
0.3333333333333335 1 1
1.833333333333333 1 1
1.5 1 1
1.166666666666667 1 1
0.8333333333333335 1 1
0.5 1 1
0.1666666666666667 1 1
0 0.6666666666666667 1
0 0.3333333333333334 1
0 0.8333333333333334 1
0 0.5 1
0 0.1666666666666667 1
0.3333333333333335 0.3333333333333334 0
0.3333333333333335 0.6666666666666667 0
0.6666666666666667 0.3333333333333334 0
0.6666666666666667 0.6666666666666667 0
1 0.3333333333333333 0
1 0.6666666666666666 0
1.333333333333333 0.3333333333333333 0
1.333333333333333 0.6666666666666666 0
1.666666666666667 0.3333333333333333 0
1.666666666666667 0.6666666666666666 0
0.3333333333333334 0.1666666666666667 0
0.1666666666666667 0.3333333333333334 0
0.1666666666666666 0.1666666666666666 0
0.3333333333333335 0.5 0
0.1666666666666667 0.6666666666666667 0
0.1666666666666667 0.5 0
0.3333333333333335 0.8333333333333334 0
0.1666666666666667 0.8333333333333334 0
0.6666666666666666 0.1666666666666667 0
0.5000000000000001 0.3333333333333334 0
0.5 0.1666666666666667 0
0.6666666666666667 0.5 0
0.5000000000000001 0.6666666666666667 0
0.5000000000000001 0.5 0
0.6666666666666667 0.8333333333333334 0
0.5 0.8333333333333334 0
1 0.1666666666666666 0
0.8333333333333334 0.3333333333333333 0
0.8333333333333333 0.1666666666666667 0
1 0.5 0
0.8333333333333334 0.6666666666666666 0
0.8333333333333334 0.5 0
1 0.8333333333333333 0
0.8333333333333335 0.8333333333333334 0
1.333333333333333 0.1666666666666666 0
1.166666666666667 0.3333333333333333 0
1.166666666666667 0.1666666666666666 0
1.333333333333333 0.5 0
1.166666666666667 0.6666666666666666 0
1.166666666666667 0.5 0
1.333333333333333 0.8333333333333333 0
1.166666666666667 0.8333333333333333 0
1.666666666666667 0.1666666666666666 0
1.5 0.3333333333333333 0
1.5 0.1666666666666666 0
1.666666666666667 0.4999999999999999 0
1.5 0.6666666666666666 0
1.5 0.4999999999999999 0
1.666666666666667 0.8333333333333333 0
1.5 0.8333333333333333 0
1.833333333333333 0.3333333333333333 0
1.833333333333333 0.1666666666666666 0
1.833333333333333 0.6666666666666666 0
1.833333333333333 0.5 0
1.833333333333333 0.8333333333333333 0
0.3333333333333333 0 0.3333333333333333
0.3333333333333333 0 0.6666666666666666
0.6666666666666666 0 0.3333333333333333
0.6666666666666666 0 0.6666666666666666
1 0 0.3333333333333333
1 0 0.6666666666666666
1.333333333333333 0 0.3333333333333333
1.333333333333333 0 0.6666666666666666
1.666666666666667 0 0.3333333333333333
1.666666666666667 0 0.6666666666666666
0.3333333333333333 0 0.1666666666666667
0.1666666666666667 0 0.3333333333333333
0.1666666666666667 0 0.1666666666666667
0.3333333333333333 0 0.5
0.1666666666666667 0 0.6666666666666666
0.1666666666666667 0 0.4999999999999999
0.3333333333333333 0 0.8333333333333333
0.1666666666666667 0 0.8333333333333333
0.6666666666666666 0 0.1666666666666667
0.5 0 0.3333333333333333
0.5 0 0.1666666666666667
0.6666666666666666 0 0.5
0.5 0 0.6666666666666666
0.5 0 0.4999999999999999
0.6666666666666666 0 0.8333333333333333
0.5 0 0.8333333333333333
1 0 0.1666666666666667
0.8333333333333333 0 0.3333333333333333
0.8333333333333333 0 0.1666666666666667
1 0 0.5
0.8333333333333333 0 0.6666666666666666
0.8333333333333333 0 0.4999999999999999
1 0 0.8333333333333333
0.8333333333333333 0 0.8333333333333333
1.333333333333333 0 0.1666666666666667
1.166666666666667 0 0.3333333333333333
1.166666666666667 0 0.1666666666666667
1.333333333333333 0 0.5
1.166666666666667 0 0.6666666666666666
1.166666666666667 0 0.4999999999999999
1.333333333333333 0 0.8333333333333333
1.166666666666667 0 0.8333333333333333
1.666666666666667 0 0.1666666666666667
1.5 0 0.3333333333333333
1.5 0 0.1666666666666667
1.666666666666667 0 0.5
1.5 0 0.6666666666666666
1.5 0 0.4999999999999999
1.666666666666667 0 0.8333333333333333
1.5 0 0.8333333333333333
1.833333333333333 0 0.3333333333333333
1.833333333333333 0 0.1666666666666667
1.833333333333333 0 0.6666666666666666
1.833333333333333 0 0.4999999999999999
1.833333333333333 0 0.8333333333333333
2 0.3333333333333333 0.3333333333333333
2 0.3333333333333333 0.6666666666666666
2 0.6666666666666666 0.3333333333333333
2 0.6666666666666666 0.6666666666666666
2 0.3333333333333333 0.1666666666666667
2 0.1666666666666667 0.3333333333333333
2 0.1666666666666667 0.1666666666666667
2 0.3333333333333333 0.5
2 0.1666666666666667 0.6666666666666666
2 0.1666666666666667 0.4999999999999999
2 0.3333333333333333 0.8333333333333333
2 0.1666666666666667 0.8333333333333333
2 0.6666666666666666 0.1666666666666667
2 0.5 0.3333333333333333
2 0.5 0.1666666666666667
2 0.6666666666666666 0.5
2 0.5 0.6666666666666666
2 0.5 0.4999999999999999
2 0.6666666666666666 0.8333333333333333
2 0.5 0.8333333333333333
2 0.8333333333333333 0.3333333333333333
2 0.8333333333333333 0.1666666666666667
2 0.8333333333333333 0.6666666666666666
2 0.8333333333333333 0.4999999999999999
2 0.8333333333333333 0.8333333333333333
1.666666666666667 1 0.3333333333333333
1.666666666666667 1 0.6666666666666666
1.333333333333333 1 0.3333333333333333
1.333333333333333 1 0.6666666666666666
1 1 0.3333333333333333
1 1 0.6666666666666666
0.6666666666666667 1 0.3333333333333333
0.6666666666666667 1 0.6666666666666666
0.3333333333333335 1 0.3333333333333333
0.3333333333333335 1 0.6666666666666666
1.666666666666667 1 0.1666666666666667
1.833333333333333 1 0.3333333333333333
1.833333333333333 1 0.1666666666666667
1.666666666666667 1 0.5
1.833333333333333 1 0.6666666666666666
1.833333333333333 1 0.4999999999999999
1.666666666666667 1 0.8333333333333333
1.833333333333333 1 0.8333333333333333
1.333333333333333 1 0.1666666666666667
1.5 1 0.3333333333333333
1.5 1 0.1666666666666667
1.333333333333333 1 0.5
1.5 1 0.6666666666666666
1.5 1 0.4999999999999999
1.333333333333333 1 0.8333333333333333
1.5 1 0.8333333333333333
1 1 0.1666666666666667
1.166666666666667 1 0.3333333333333333
1.166666666666667 1 0.1666666666666667
1 1 0.5
1.166666666666667 1 0.6666666666666666
1.166666666666667 1 0.4999999999999999
1 1 0.8333333333333333
1.166666666666667 1 0.8333333333333333
0.6666666666666667 1 0.1666666666666667
0.8333333333333335 1 0.3333333333333333
0.8333333333333335 1 0.1666666666666667
0.6666666666666667 1 0.5
0.8333333333333335 1 0.6666666666666666
0.8333333333333335 1 0.4999999999999999
0.6666666666666667 1 0.8333333333333333
0.8333333333333335 1 0.8333333333333333
0.3333333333333335 1 0.1666666666666667
0.5 1 0.3333333333333333
0.5 1 0.1666666666666667
0.3333333333333335 1 0.5
0.5 1 0.6666666666666666
0.5 1 0.4999999999999999
0.3333333333333335 1 0.8333333333333333
0.5 1 0.8333333333333333
0.1666666666666667 1 0.3333333333333333
0.1666666666666667 1 0.1666666666666667
0.1666666666666667 1 0.6666666666666666
0.1666666666666667 1 0.4999999999999999
0.1666666666666667 1 0.8333333333333333
0 0.6666666666666667 0.3333333333333333
0 0.6666666666666667 0.6666666666666666
0 0.3333333333333334 0.3333333333333333
0 0.3333333333333334 0.6666666666666666
0 0.6666666666666667 0.1666666666666667
0 0.8333333333333334 0.3333333333333333
0 0.8333333333333334 0.1666666666666667
0 0.6666666666666667 0.5
0 0.8333333333333334 0.6666666666666666
0 0.8333333333333334 0.4999999999999999
0 0.6666666666666667 0.8333333333333333
0 0.8333333333333334 0.8333333333333333
0 0.3333333333333334 0.1666666666666667
0 0.5 0.3333333333333333
0 0.5 0.1666666666666667
0 0.3333333333333334 0.5
0 0.5 0.6666666666666666
0 0.5 0.4999999999999999
0 0.3333333333333334 0.8333333333333333
0 0.5 0.8333333333333333
0 0.1666666666666667 0.3333333333333333
0 0.1666666666666667 0.1666666666666667
0 0.1666666666666667 0.6666666666666666
0 0.1666666666666667 0.4999999999999999
0 0.1666666666666667 0.8333333333333333
0.3333333333333335 0.3333333333333334 1
0.3333333333333335 0.6666666666666667 1
0.6666666666666667 0.3333333333333334 1
0.6666666666666667 0.6666666666666667 1
1 0.3333333333333333 1
1 0.6666666666666666 1
1.333333333333333 0.3333333333333333 1
1.333333333333333 0.6666666666666666 1
1.666666666666667 0.3333333333333333 1
1.666666666666667 0.6666666666666666 1
0.3333333333333334 0.1666666666666667 1
0.1666666666666667 0.3333333333333334 1
0.1666666666666666 0.1666666666666666 1
0.3333333333333335 0.5 1
0.1666666666666667 0.6666666666666667 1
0.1666666666666667 0.5 1
0.3333333333333335 0.8333333333333334 1
0.1666666666666667 0.8333333333333334 1
0.6666666666666667 0.1666666666666667 1
0.5000000000000001 0.3333333333333334 1
0.5 0.1666666666666666 1
0.6666666666666667 0.5 1
0.5000000000000001 0.6666666666666667 1
0.5000000000000001 0.5 1
[...]
CELL_DATA 144
SCALARS CellEntityIds int 1
LOOKUP_TABLE default
1
1
1
1
1
1
1
1
1
1
1
1
1
1
1
1
1
1
1
1
1
1
1
1
1
1
1
1
1
1
1
1
1
1
1
1
1
1
1
1
1
1
1
1
1
1
1
1
1
1
1
1
1
1
1
1
1
1
1
1
1
1
1
1
1
1
1
1
1
1
1
1
1
1
1
1
1
1
1
1
1
1
1
1
1
1
1
1
1
1
1
1
1
1
1
1
1
1
1
1
1
1
1
1
1
1
1
1
1
1
1
1
1
1
1
1
1
1
1
1
1
1
1
1
1
1
1
1
1
1
1
1
1
1
1
1
1
1
1
1
1
1
1
1
