<VTKFile type="UnstructuredGrid" version="1.0">
<UnstructuredGrid>
<FieldData>
<DataArray type="Float64" Name="TIME" NumberOfTuples="1" format="ascii" RangeMin="100" RangeMax="100">
100
</DataArray>
</FieldData>
<Piece NumberOfPoints="15756" NumberOfCells="12500">
<Points>
<DataArray type="Float64" NumberOfComponents="3" format="ascii">
0 0 400 100 0 400 100 25 400 0
25 400 0 0 403.75 100 0 403.75 100 25
403.75 0 25 403.75 1 0 400 2 0 400
3 0 400 4 0 400 5 0 400 6
0 400 7 0 400 8 0 400 9 0
400 10 0 400 11 0 400 12 0 400
13 0 400 14 0 400 15 0 400 16
0 400 17 0 400 18 0 400 19 0
400 20 0 400 21 0 400 22 0 400
23 0 400 24 0 400 25 0 400 26
0 400 27 0 400 28 0 400 29 0
400 30 0 400 31 0 400 32 0 400
33 0 400 34 0 400 35 0 400 36
0 400 37 0 400 38 0 400 39 0
400 40 0 400 41 0 400 42 0 400
43 0 400 44 0 400 45 0 400 46
0 400 47 0 400 48 0 400 49 0
400 50 0 400 51 0 400 52 0 400
53 0 400 54 0 400 55 0 400 56
0 400 57 0 400 58 0 400 59 0
400 60 0 400 61 0 400 62 0 400
63 0 400 64 0 400 65 0 400 66
0 400 67 0 400 68 0 400 69 0
400 70 0 400 71 0 400 72 0 400
73 0 400 74 0 400 75 0 400 76
0 400 77 0 400 78 0 400 79 0
400 80 0 400 81 0 400 82 0 400
83 0 400 84 0 400 85 0 400 86
0 400 87 0 400 88 0 400 89 0
400 90 0 400 91 0 400 92 0 400
93 0 400 94 0 400 95 0 400 96
0 400 97 0 400 98 0 400 99 0
400 100 1 400 100 2 400 100 3 400
100 4 400 100 5 400 100 6 400 100
7 400 100 8 400 100 9 400 100 10
400 100 11 400 100 12 400 100 13 400
100 14 400 100 15 400 100 16 400 100
17 400 100 18 400 100 19 400 100 20
400 100 21 400 100 22 400 100 23 400
100 24 400 99 25 400 98 25 400 97
25 400 96 25 400 95 25 400 94 25
400 93 25 400 92 25 400 91 25 400
90 25 400 89 25 400 88 25 400 87
25 400 86 25 400 85 25 400 84 25
400 83 25 400 82 25 400 81 25 400
80 25 400 79 25 400 78 25 400 77
25 400 76 25 400 75 25 400 74 25
400 73 25 400 72 25 400 71 25 400
70 25 400 69 25 400 68 25 400 67
25 400 66 25 400 65 25 400 64 25
400 63 25 400 62 25 400 61 25 400
60 25 400 59 25 400 58 25 400 57
25 400 56 25 400 55 25 400 54 25
400 53 25 400 52 25 400 51 25 400
50 25 400 49 25 400 48 25 400 47
25 400 46 25 400 45 25 400 44 25
400 43 25 400 42 25 400 41 25 400
40 25 400 39 25 400 38 25 400 37
25 400 36 25 400 35 25 400 34 25
400 33 25 400 32 25 400 31 25 400
30 25 400 29 25 400 28 25 400 27
25 400 26 25 400 25 25 400 24 25
400 23 25 400 22 25 400 21 25 400
20 25 400 19 25 400 18 25 400 17
25 400 16 25 400 15 25 400 14 25
400 13 25 400 12 25 400 11 25 400
10 25 400 9 25 400 8 25 400 7
25 400 6 25 400 5 25 400 4 25
400 3 25 400 2 25 400 1 25 400
0 24 400 0 23 400 0 22 400 0
21 400 0 20 400 0 19 400 0 18
400 0 17 400 0 16 400 0 15 400
0 14 400 0 13 400 0 12 400 0
11 400 0 10 400 0 9 400 0 8
400 0 7 400 0 6 400 0 5 400
0 4 400 0 3 400 0 2 400 0
1 400 1 0 403.75 2 0 403.75 3 0
403.75 4 0 403.75 5 0 403.75 6 0 403.75
7 0 403.75 8 0 403.75 9 0 403.75 10
0 403.75 11 0 403.75 12 0 403.75 13 0
403.75 14 0 403.75 15 0 403.75 16 0 403.75
17 0 403.75 18 0 403.75 19 0 403.75 20
0 403.75 21 0 403.75 22 0 403.75 23 0
403.75 24 0 403.75 25 0 403.75 26 0 403.75
27 0 403.75 28 0 403.75 29 0 403.75 30
0 403.75 31 0 403.75 32 0 403.75 33 0
403.75 34 0 403.75 35 0 403.75 36 0 403.75
37 0 403.75 38 0 403.75 39 0 403.75 40
0 403.75 41 0 403.75 42 0 403.75 43 0
403.75 44 0 403.75 45 0 403.75 46 0 403.75
47 0 403.75 48 0 403.75 49 0 403.75 50
0 403.75 51 0 403.75 52 0 403.75 53 0
403.75 54 0 403.75 55 0 403.75 56 0 403.75
57 0 403.75 58 0 403.75 59 0 403.75 60
0 403.75 61 0 403.75 62 0 403.75 63 0
403.75 64 0 403.75 65 0 403.75 66 0 403.75
67 0 403.75 68 0 403.75 69 0 403.75 70
0 403.75 71 0 403.75 72 0 403.75 73 0
403.75 74 0 403.75 75 0 403.75 76 0 403.75
77 0 403.75 78 0 403.75 79 0 403.75 80
0 403.75 81 0 403.75 82 0 403.75 83 0
403.75 84 0 403.75 85 0 403.75 86 0 403.75
87 0 403.75 88 0 403.75 89 0 403.75 90
0 403.75 91 0 403.75 92 0 403.75 93 0
403.75 94 0 403.75 95 0 403.75 96 0 403.75
97 0 403.75 98 0 403.75 99 0 403.75 100
1 403.75 100 2 403.75 100 3 403.75 100 4
403.75 100 5 403.75 100 6 403.75 100 7 403.75
100 8 403.75 100 9 403.75 100 10 403.75 100
11 403.75 100 12 403.75 100 13 403.75 100 14
403.75 100 15 403.75 100 16 403.75 100 17 403.75
100 18 403.75 100 19 403.75 100 20 403.75 100
21 403.75 100 22 403.75 100 23 403.75 100 24
403.75 99 25 403.75 98 25 403.75 97 25 403.75
96 25 403.75 95 25 403.75 94 25 403.75 93
25 403.75 92 25 403.75 91 25 403.75 90 25
403.75 89 25 403.75 88 25 403.75 87 25 403.75
86 25 403.75 85 25 403.75 84 25 403.75 83
25 403.75 82 25 403.75 81 25 403.75 80 25
403.75 79 25 403.75 78 25 403.75 77 25 403.75
76 25 403.75 75 25 403.75 74 25 403.75 73
25 403.75 72 25 403.75 71 25 403.75 70 25
403.75 69 25 403.75 68 25 403.75 67 25 403.75
66 25 403.75 65 25 403.75 64 25 403.75 63
25 403.75 62 25 403.75 61 25 403.75 60 25
403.75 59 25 403.75 58 25 403.75 57 25 403.75
56 25 403.75 55 25 403.75 54 25 403.75 53
25 403.75 52 25 403.75 51 25 403.75 50 25
403.75 49 25 403.75 48 25 403.75 47 25 403.75
46 25 403.75 45 25 403.75 44 25 403.75 43
25 403.75 42 25 403.75 41 25 403.75 40 25
403.75 39 25 403.75 38 25 403.75 37 25 403.75
36 25 403.75 35 25 403.75 34 25 403.75 33
25 403.75 32 25 403.75 31 25 403.75 30 25
403.75 29 25 403.75 28 25 403.75 27 25 403.75
26 25 403.75 25 25 403.75 24 25 403.75 23
25 403.75 22 25 403.75 21 25 403.75 20 25
403.75 19 25 403.75 18 25 403.75 17 25 403.75
16 25 403.75 15 25 403.75 14 25 403.75 13
25 403.75 12 25 403.75 11 25 403.75 10 25
403.75 9 25 403.75 8 25 403.75 7 25 403.75
6 25 403.75 5 25 403.75 4 25 403.75 3
25 403.75 2 25 403.75 1 25 403.75 0 24
403.75 0 23 403.75 0 22 403.75 0 21 403.75
0 20 403.75 0 19 403.75 0 18 403.75 0
17 403.75 0 16 403.75 0 15 403.75 0 14
403.75 0 13 403.75 0 12 403.75 0 11 403.75
0 10 403.75 0 9 403.75 0 8 403.75 0
7 403.75 0 6 403.75 0 5 403.75 0 4
403.75 0 3 403.75 0 2 403.75 0 1 403.75
0 0 400.75 0 0 401.5 0 0 402.25 0
0 403 100 0 400.75 100 0 401.5 100 0
402.25 100 0 403 100 25 400.75 100 25 401.5
100 25 402.25 100 25 403 0 25 400.75 0
25 401.5 0 25 402.25 0 25 403 1 1
400 1 2 400 1 3 400 1 4 400
1 5 400 1 6 400 1 7 400 1
8 400 1 9 400 1 10 400 1 11
400 1 12 400 1 13 400 1 14 400
1 15 400 1 16 400 1 17 400 1
18 400 1 19 400 1 20 400 1 21
400 1 22 400 1 23 400 1 24 400
2 1 400 2 2 400 2 3 400 2
4 400 2 5 400 2 6 400 2 7
400 2 8 400 2 9 400 2 10 400
2 11 400 2 12 400 2 13 400 2
14 400 2 15 400 2 16 400 2 17
400 2 18 400 2 19 400 2 20 400
2 21 400 2 22 400 2 23 400 2
24 400 3 1 400 3 2 400 3 3
400 3 4 400 3 5 400 3 6 400
3 7 400 3 8 400 3 9 400 3
10 400 3 11 400 3 12 400 3 13
400 3 14 400 3 15 400 3 16 400
3 17 400 3 18 400 3 19 400 3
20 400 3 21 400 3 22 400 3 23
400 3 24 400 4 1 400 4 2 400
4 3 400 4 4 400 4 5 400 4
6 400 4 7 400 4 8 400 4 9
400 4 10 400 4 11 400 4 12 400
4 13 400 4 14 400 4 15 400 4
16 400 4 17 400 4 18 400 4 19
400 4 20 400 4 21 400 4 22 400
4 23 400 4 24 400 5 1 400 5
2 400 5 3 400 5 4 400 5 5
400 5 6 400 5 7 400 5 8 400
5 9 400 5 10 400 5 11 400 5
12 400 5 13 400 5 14 400 5 15
400 5 16 400 5 17 400 5 18 400
5 19 400 5 20 400 5 21 400 5
22 400 5 23 400 5 24 400 6 1
400 6 2 400 6 3 400 6 4 400
6 5 400 6 6 400 6 7 400 6
8 400 6 9 400 6 10 400 6 11
400 6 12 400 6 13 400 6 14 400
6 15 400 6 16 400 6 17 400 6
18 400 6 19 400 6 20 400 6 21
400 6 22 400 6 23 400 6 24 400
7 1 400 7 2 400 7 3 400 7
4 400 7 5 400 7 6 400 7 7
400 7 8 400 7 9 400 7 10 400
7 11 400 7 12 400 7 13 400 7
14 400 7 15 400 7 16 400 7 17
400 7 18 400 7 19 400 7 20 400
7 21 400 7 22 400 7 23 400 7
24 400 8 1 400 8 2 400 8 3
400 8 4 400 8 5 400 8 6 400
8 7 400 8 8 400 8 9 400 8
10 400 8 11 400 8 12 400 8 13
400 8 14 400 8 15 400 8 16 400
8 17 400 8 18 400 8 19 400 8
20 400 8 21 400 8 22 400 8 23
400 8 24 400 9 1 400 9 2 400
9 3 400 9 4 400 9 5 400 9
6 400 9 7 400 9 8 400 9 9
400 9 10 400 9 11 400 9 12 400
9 13 400 9 14 400 9 15 400 9
16 400 9 17 400 9 18 400 9 19
400 9 20 400 9 21 400 9 22 400
9 23 400 9 24 400 10 1 400 10
2 400 10 3 400 10 4 400 10 5
400 10 6 400 10 7 400 10 8 400
10 9 400 10 10 400 10 11 400 10
12 400 10 13 400 10 14 400 10 15
400 10 16 400 10 17 400 10 18 400
10 19 400 10 20 400 10 21 400 10
22 400 10 23 400 10 24 400 11 1
400 11 2 400 11 3 400 11 4 400
11 5 400 11 6 400 11 7 400 11
8 400 11 9 400 11 10 400 11 11
400 11 12 400 11 13 400 11 14 400
11 15 400 11 16 400 11 17 400 11
18 400 11 19 400 11 20 400 11 21
400 11 22 400 11 23 400 11 24 400
12 1 400 12 2 400 12 3 400 12
4 400 12 5 400 12 6 400 12 7
400 12 8 400 12 9 400 12 10 400
12 11 400 12 12 400 12 13 400 12
14 400 12 15 400 12 16 400 12 17
400 12 18 400 12 19 400 12 20 400
12 21 400 12 22 400 12 23 400 12
24 400 13 1 400 13 2 400 13 3
400 13 4 400 13 5 400 13 6 400
13 7 400 13 8 400 13 9 400 13
10 400 13 11 400 13 12 400 13 13
400 13 14 400 13 15 400 13 16 400
13 17 400 13 18 400 13 19 400 13
20 400 13 21 400 13 22 400 13 23
400 13 24 400 14 1 400 14 2 400
14 3 400 14 4 400 14 5 400 14
6 400 14 7 400 14 8 400 14 9
400 14 10 400 14 11 400 14 12 400
14 13 400 14 14 400 14 15 400 14
16 400 14 17 400 14 18 400 14 19
400 14 20 400 14 21 400 14 22 400
14 23 400 14 24 400 15 1 400 15
2 400 15 3 400 15 4 400 15 5
400 15 6 400 15 7 400 15 8 400
15 9 400 15 10 400 15 11 400 15
12 400 15 13 400 15 14 400 15 15
400 15 16 400 15 17 400 15 18 400
15 19 400 15 20 400 15 21 400 15
22 400 15 23 400 15 24 400 16 1
400 16 2 400 16 3 400 16 4 400
16 5 400 16 6 400 16 7 400 16
8 400 16 9 400 16 10 400 16 11
400 16 12 400 16 13 400 16 14 400
16 15 400 16 16 400 16 17 400 16
18 400 16 19 400 16 20 400 16 21
400 16 22 400 16 23 400 16 24 400
17 1 400 17 2 400 17 3 400 17
4 400 17 5 400 17 6 400 17 7
400 17 8 400 17 9 400 17 10 400
17 11 400 17 12 400 17 13 400 17
14 400 17 15 400 17 16 400 17 17
400 17 18 400 17 19 400 17 20 400
17 21 400 17 22 400 17 23 400 17
24 400 18 1 400 18 2 400 18 3
400 18 4 400 18 5 400 18 6 400
18 7 400 18 8 400 18 9 400 18
10 400 18 11 400 18 12 400 18 13
400 18 14 400 18 15 400 18 16 400
18 17 400 18 18 400 18 19 400 18
20 400 18 21 400 18 22 400 18 23
400 18 24 400 19 1 400 19 2 400
19 3 400 19 4 400 19 5 400 19
[...]
<PointData>
<DataArray type="Float64" Name="press" NumberOfComponents="1" format="ascii">
100 91.761 60 105.027 100 54.9735 60 68.239 110.124 109.626
109.205 108.611 108.068 107.584 107.155 106.772 106.425 106.108 105.814 105.539
105.279 105.033 104.797 104.57 104.351 104.138 103.931 103.729 103.531 103.336
103.145 102.956 102.769 102.584 102.402 102.22 102.04 101.862 101.684 101.507
101.331 101.156 100.981 100.807 100.634 100.46 100.288 100.115 99.9431 99.7712
99.5996 99.4282 99.257 99.086 98.9152 98.7446 98.5741 98.4038 98.2336 98.0636
97.8938 97.7242 97.5547 97.3854 97.2163 97.0474 96.8788 96.7105 96.5424 96.3747
96.2074 96.0405 95.874 95.7081 95.5427 95.3781 95.2141 95.051 94.8889 94.7279
94.568 94.4095 94.2525 94.0972 93.9439 93.7926 93.6438 93.4976 93.3544 93.2146
93.0783 92.9462 92.8185 92.6957 92.5783 92.4667 92.3616 92.2632 92.1723 92.0892
92.0146 91.9488 91.8923 91.8455 91.8088 91.7823 91.7663 91.7556 91.7396 91.7126
91.6746 91.6251 91.5639 91.4902 91.4035 91.3029 91.1872 91.0553 90.9052 90.7351
90.5421 90.3226 90.0717 89.7828 89.4454 89.0428 88.5451 87.8886 86.9472 85.2097
82.4839 82.4875 85.2239 86.9793 87.9457 88.6342 89.1711 89.62 90.0109 90.3605
90.6791 90.9735 91.2487 91.5082 91.7547 91.9905 92.2173 92.4364 92.6491 92.8561
93.0585 93.2567 93.4513 93.6429 93.8318 94.0184 94.203 94.3858 94.5671 94.747
94.9258 95.1034 95.2802 95.4562 95.6315 95.8061 95.9802 96.1538 96.327 96.4998
96.6723 96.8444 97.0163 97.1879 97.3593 97.5305 97.7015 97.8723 98.0429 98.2134
98.3837 98.5539 98.7239 98.8937 99.0633 99.2328 99.4021 99.5712 99.7401 99.9087
100.077 100.245 100.413 100.58 100.747 100.914 101.079 101.245 101.409 101.573
101.736 101.899 102.06 102.22 102.378 102.535 102.69 102.844 102.995 103.144
103.29 103.433 103.573 103.709 103.841 103.969 104.092 104.209 104.321 104.426
104.524 104.615 104.698 104.773 104.839 104.895 104.942 104.979 105.005 105.021
105.032 105.048 105.075 105.113 105.162 105.224 105.297 105.384 105.485 105.6
105.732 105.882 106.052 106.245 106.464 106.714 107 107.33 107.712 108.157
108.668 109.237 109.641 110.127 77.5125 74.7761 73.0207 72.0543 71.3658 70.8289
70.38 69.9891 69.6395 69.3209 69.0265 68.7513 68.4918 68.2453 68.0095 67.7827
67.5636 67.3509 67.1439 66.9415 66.7433 66.5487 66.3571 66.1682 65.9816 65.797
65.6142 65.4329 65.253 65.0742 64.8966 64.7198 64.5438 64.3685 64.1939 64.0198
63.8462 63.673 63.5002 63.3277 63.1556 62.9837 62.8121 62.6407 62.4695 62.2985
62.1277 61.9571 61.7866 61.6163 61.4461 61.2761 61.1063 60.9367 60.7672 60.5979
60.4288 60.2599 60.0913 59.923 59.7549 59.5872 59.4199 59.253 59.0865 58.9206
58.7552 58.5906 58.4266 58.2635 58.1014 57.9404 57.7805 57.622 57.465 57.3097
57.1564 57.0051 56.8563 56.7101 56.5669 56.4271 56.2908 56.1587 56.031 55.9082
55.7908 55.6792 55.5741 55.4757 55.3848 55.3017 55.2271 55.1613 55.1048 55.058
55.0213 54.9948 54.9788 54.9681 54.9521 54.9251 54.8871 54.8376 54.7764 54.7027
54.616 54.5154 54.3998 54.2678 54.1178 53.9477 53.7549 53.5358 53.2862 53.0002
52.6704 52.2879 51.8426 51.332 50.7628 50.3593 49.8727 49.8763 50.3736 50.7949
51.3891 51.9317 52.4162 52.8451 53.2283 53.5749 53.8923 54.1863 54.4613 54.7207
54.9672 55.203 55.4298 55.6489 55.8616 56.0686 56.271 56.4692 56.6638 56.8554
57.0443 57.2309 57.4155 57.5983 57.7796 57.9595 58.1383 58.3159 58.4927 58.6687
58.844 59.0186 59.1927 59.3663 59.5395 59.7123 59.8848 60.0569 60.2288 60.4004
60.5718 60.743 60.914 61.0848 61.2554 61.4259 61.5962 61.7664 61.9364 62.1062
62.2758 62.4453 62.6146 62.7837 62.9526 63.1212 63.2895 63.4576 63.6253 63.7926
63.9595 64.126 64.2919 64.4573 64.6219 64.7859 64.9489 65.1111 65.2721 65.432
65.5905 65.7475 65.9028 66.0561 66.2074 66.3562 66.5024 66.6456 66.7854 66.9217
67.0538 67.1815 67.3043 67.4217 67.5333 67.6384 67.7368 67.8277 67.9107 67.9854
68.0512 68.1077 68.1545 68.1912 68.2177 68.2337 68.2444 68.2604 68.2874 68.3254
68.3749 68.4361 68.5098 68.5965 68.6971 68.8128 68.9447 69.0947 69.2649 69.4579
69.6774 69.9283 70.2172 70.5546 70.9572 71.4549 72.1114 73.0528 74.7903 77.5161
100 100 100 100 84.4035 77.046 69.6885 62.331 60 60
60 60 97.669 90.3115 82.954 75.5965 109.298 109.633 109.128 108.602
108.108 107.676 107.301 106.978 106.696 106.449 106.232 106.041 105.872 105.723
105.592 105.477 105.377 105.291 105.217 105.156 105.107 105.069 105.043 105.026
109.622 109.269 108.879 108.411 107.968 107.57 107.22 106.912 106.642 106.404
106.194 106.008 105.843 105.697 105.568 105.455 105.356 105.271 105.199 105.139
105.09 105.053 105.026 105.01 109.1 108.861 108.513 108.134 107.758 107.408
107.092 106.809 106.556 106.332 106.131 105.953 105.794 105.653 105.528 105.418
105.322 105.239 105.169 105.11 105.062 105.025 104.999 104.984 108.549 108.368
108.109 107.809 107.502 107.204 106.927 106.673 106.443 106.235 106.047 105.879
105.728 105.593 105.473 105.368 105.275 105.195 105.126 105.069 105.023 104.987
104.962 104.947 108.022 107.893 107.701 107.469 107.222 106.975 106.737 106.513
106.306 106.117 105.944 105.787 105.646 105.518 105.405 105.304 105.216 105.139
105.073 105.018 104.973 104.939 104.915 104.9 107.551 107.456 107.312 107.133
106.935 106.731 106.53 106.336 106.153 105.982 105.825 105.68 105.549 105.43
105.323 105.228 105.144 105.071 105.009 104.956 104.914 104.881 104.857 104.843
107.13 107.059 106.949 106.809 106.651 106.483 106.313 106.146 105.986 105.834
105.692 105.56 105.44 105.33 105.23 105.141 105.063 104.994 104.934 104.885
104.844 104.813 104.791 104.777 106.753 106.698 106.613 106.502 106.374 106.236
106.093 105.95 105.81 105.676 105.549 105.43 105.32 105.219 105.127 105.044
104.971 104.906 104.851 104.804 104.766 104.736 104.715 104.702 106.41 106.368
106.3 106.211 106.107 105.992 105.872 105.749 105.628 105.51 105.397 105.29
105.191 105.099 105.014 104.938 104.87 104.81 104.758 104.714 104.679 104.651
104.631 104.619 106.096 106.062 106.007 105.935 105.85 105.754 105.652 105.548
105.442 105.339 105.239 105.144 105.054 104.97 104.894 104.824 104.761 104.705
104.657 104.617 104.583 104.558 104.539 104.528 105.804 105.777 105.732 105.673
105.602 105.522 105.436 105.346 105.255 105.165 105.076 104.991 104.911 104.836
104.766 104.702 104.645 104.594 104.549 104.512 104.481 104.457 104.44 104.429
105.531 105.508 105.472 105.423 105.363 105.296 105.223 105.146 105.067 104.988
104.91 104.835 104.763 104.695 104.632 104.574 104.522 104.475 104.435 104.4
104.371 104.349 104.333 104.324 105.273 105.254 105.224 105.183 105.133 105.076
105.013 104.947 104.879 104.81 104.741 104.675 104.611 104.55 104.493 104.441
104.393 104.351 104.314 104.282 104.256 104.235 104.221 104.212 105.027 105.012
104.986 104.952 104.91 104.861 104.807 104.75 104.691 104.631 104.571 104.512
104.455 104.401 104.35 104.303 104.26 104.221 104.187 104.158 104.135 104.116
104.103 104.094 104.792 104.779 104.758 104.729 104.693 104.651 104.605 104.556
104.504 104.452 104.399 104.347 104.296 104.248 104.202 104.16 104.121 104.087
104.056 104.03 104.008 103.991 103.979 103.971 104.566 104.555 104.537 104.512
104.481 104.446 104.406 104.364 104.319 104.273 104.226 104.181 104.136 104.093
104.052 104.014 103.979 103.948 103.92 103.896 103.877 103.861 103.85 103.844
104.348 104.338 104.323 104.301 104.275 104.245 104.21 104.173 104.134 104.094
104.053 104.013 103.973 103.935 103.899 103.865 103.834 103.805 103.78 103.759
103.741 103.727 103.717 103.711 104.136 104.128 104.114 104.096 104.073 104.047
104.017 103.985 103.951 103.916 103.88 103.844 103.809 103.776 103.743 103.713
103.685 103.66 103.637 103.618 103.602 103.589 103.58 103.575 103.929 103.922
103.91 103.895 103.875 103.852 103.827 103.799 103.769 103.738 103.707 103.675
103.644 103.614 103.586 103.559 103.534 103.511 103.491 103.474 103.459 103.448
103.44 103.435 103.727 103.721 103.711 103.697 103.681 103.661 103.638 103.614
103.588 103.561 103.533 103.506 103.478 103.452 103.426 103.402 103.38 103.36
103.342 103.326 103.313 103.303 103.296 103.291 103.529 103.524 103.515 103.503
103.489 103.472 103.452 103.431 103.408 103.385 103.36 103.336 103.312 103.288
103.266 103.244 103.224 103.206 103.19 103.176 103.165 103.156 103.149 103.145
103.335 103.33 103.323 103.312 103.3 103.285 103.268 103.249 103.229 103.209
103.187 103.166 103.144 103.124 103.104 103.085 103.067 103.051 103.036 103.024
103.014 103.006 103 102.996 103.143 103.139 103.133 103.124 103.113 103.1
103.085 103.069 103.051 103.033 103.014 102.995 102.977 102.958 102.94 102.924
102.908 102.894 102.881 102.87 102.86 102.853 102.848 102.845 102.955 102.951
102.945 102.938 102.928 102.917 102.904 102.889 102.874 102.858 102.842 102.825
102.808 102.792 102.776 102.761 102.747 102.735 102.723 102.714 102.705 102.699
102.694 102.691 102.768 102.765 102.76 102.753 102.745 102.735 102.724 102.711
102.698 102.684 102.669 102.654 102.64 102.625 102.611 102.598 102.586 102.575
102.564 102.556 102.548 102.543 102.538 102.536 102.584 102.581 102.577 102.571
102.563 102.555 102.545 102.534 102.522 102.51 102.497 102.484 102.471 102.458
102.446 102.434 102.423 102.413 102.404 102.396 102.39 102.385 102.381 102.379
102.401 102.399 102.395 102.39 102.383 102.376 102.367 102.357 102.347 102.336
102.325 102.313 102.302 102.291 102.28 102.269 102.26 102.251 102.243 102.236
102.23 102.226 102.222 102.22 102.22 102.218 102.214 102.21 102.204 102.198
102.19 102.181 102.172 102.163 102.153 102.143 102.133 102.123 102.113 102.104
102.095 102.087 102.08 102.074 102.069 102.065 102.062 102.06 102.04 102.038
102.035 102.031 102.026 102.02 102.014 102.006 101.998 101.99 101.981 101.972
101.963 101.955 101.946 101.938 101.93 101.923 101.917 101.912 101.907 101.903
101.901 101.899 101.861 101.86 101.857 101.854 101.849 101.844 101.838 101.832
101.825 101.817 101.809 101.802 101.794 101.786 101.778 101.771 101.765 101.758
101.753 101.748 101.744 101.741 101.738 101.737 101.684 101.682 101.68 101.677
101.673 101.669 101.663 101.658 101.651 101.645 101.638 101.631 101.624 101.617
101.611 101.604 101.598 101.593 101.588 101.584 101.58 101.577 101.575 101.574
101.507 101.506 101.504 101.501 101.498 101.494 101.489 101.484 101.478 101.473
101.467 101.461 101.454 101.448 101.442 101.437 101.432 101.427 101.422 101.419
101.415 101.413 101.411 101.41 101.331 101.33 101.328 101.326 101.323 101.319
101.315 101.311 101.306 101.301 101.296 101.29 101.285 101.279 101.274 101.269
101.264 101.26 101.256 101.253 101.25 101.248 101.246 101.245 101.156 101.155
101.153 101.151 101.149 101.145 101.142 101.138 101.134 101.129 101.124 101.12
101.115 101.11 101.105 101.101 101.097 101.093 101.09 101.087 101.084 101.082
101.081 101.08 100.981 100.98 100.979 100.977 100.975 100.972 100.969 100.965
100.962 100.958 100.953 100.949 100.945 100.941 100.937 100.933 100.929 100.926
100.923 100.92 100.918 100.916 100.915 100.914 100.807 100.806 100.805 100.803
100.801 100.799 100.796 100.793 100.79 100.786 100.783 100.779 100.775 100.771
100.768 100.764 100.761 100.758 100.755 100.753 100.751 100.749 100.748 100.747
100.633 100.633 100.632 100.63 100.628 100.626 100.624 100.621 100.618 100.615
100.612 100.608 100.605 100.602 100.598 100.595 100.592 100.59 100.587 100.585
100.583 100.582 100.581 100.58 100.46 100.46 100.459 100.457 100.456 100.454
100.452 100.449 100.447 100.444 100.441 100.438 100.435 100.432 100.429 100.426
100.424 100.421 100.419 100.417 100.416 100.414 100.414 100.413 100.288 100.287
100.286 100.285 100.284 100.282 100.28 100.278 100.275 100.273 100.27 100.268
100.265 100.262 100.26 100.257 100.255 100.253 100.251 100.249 100.248 100.247
100.246 100.245 100.115 100.115 100.114 100.113 100.112 100.11 100.108 100.106
100.104 100.102 100.1 100.097 100.095 100.092 100.09 100.088 100.086 100.084
100.082 100.081 100.079 100.078 100.078 100.077 99.943 99.9426 99.9419 99.9409
99.9398 99.9384 99.9368 99.935 99.9331 99.9311 99.929 99.9269 99.9247 99.9226
99.9205 99.9185 99.9166 99.9149 99.9133 99.9119 99.9108 99.9099 99.9092 99.9088
99.7711 99.7707 99.7701 99.7693 99.7682 99.767 99.7655 99.7639 99.7622 99.7604
99.7585 99.7566 99.7546 99.7527 99.7508 99.749 99.7472 99.7457 99.7443 99.743
99.742 99.7411 99.7405 99.7402 99.5995 99.5992 99.5986 99.5978 99.5969 99.5957
99.5944 99.593 99.5914 99.5897 99.588 99.5862 99.5845 99.5827 99.581 99.5793
99.5778 99.5763 99.575 99.5739 99.5729 99.5722 99.5716 99.5713 99.4281 99.4278
99.4273 99.4266 99.4257 99.4247 99.4235 99.4221 99.4207 99.4192 99.4176 99.4159
99.4143 99.4127 99.4111 99.4096 99.4081 99.4068 99.4056 99.4046 99.4037 99.403
99.4025 99.4022 99.2569 99.2566 99.2562 99.2555 99.2547 99.2537 99.2526 99.2514
99.2501 99.2486 99.2472 99.2457 99.2441 99.2426 99.2412 99.2397 99.2384 99.2372
99.2361 99.2351 99.2343 99.2337 99.2332 99.2329 99.0859 99.0857 99.0852 99.0846
99.0839 99.083 99.0819 99.0808 99.0795 99.0782 99.0768 99.0754 99.074 99.0725
99.0712 99.0698 99.0686 99.0674 99.0664 99.0655 99.0647 99.0641 99.0637 99.0634
98.9151 98.9149 98.9145 98.9139 98.9132 98.9123 98.9113 98.9102 98.909 98.9078
98.9065 98.9051 98.9038 98.9024 98.9011 98.8999 98.8987 98.8976 98.8966 98.8957
98.895 98.8944 98.894 98.8938 98.7445 98.7443 98.7439 98.7433 98.7426 98.7418
98.7408 98.7398 98.7386 98.7374 98.7362 98.7349 98.7336 98.7323 98.731 98.7298
98.7287 98.7276 98.7267 98.7258 98.7251 98.7246 98.7242 98.7239 98.574 98.5738
98.5734 98.5729 98.5722 98.5714 98.5704 98.5694 98.5683 98.5671 98.5659 98.5646
98.5633 98.5621 98.5609 98.5597 98.5586 98.5575 98.5566 98.5558 98.5551 98.5546
98.5542 98.5539 98.4037 98.4035 98.4031 98.4026 98.4019 98.4011 98.4002 98.3991
98.398 98.3969 98.3956 98.3944 98.3931 98.3919 98.3906 98.3895 98.3884 98.3873
98.3864 98.3856 98.3849 98.3844 98.384 98.3838 98.2336 98.2333 98.2329 98.2324
98.2317 98.2309 98.23 98.2289 98.2278 98.2266 98.2254 98.2242 98.2229 98.2216
98.2204 98.2192 98.2181 98.2171 98.2161 98.2153 98.2146 98.2141 98.2137 98.2135
98.0636 98.0633 98.0629 98.0624 98.0617 98.0608 98.0599 98.0588 98.0577 98.0565
98.0552 98.0539 98.0526 98.0513 98.0501 98.0489 98.0477 98.0467 98.0457 98.0449
98.0442 98.0436 98.0432 98.043 97.8937 97.8935 97.8931 97.8925 97.8918 97.8909
97.8899 97.8888 97.8876 97.8864 97.8851 97.8837 97.8824 97.881 97.8797 97.8785
97.8773 97.8762 97.8752 97.8743 97.8736 97.873 97.8726 97.8724 97.7241 97.7238
97.7234 97.7228 97.722 97.7211 97.7201 97.7189 97.7177 97.7163 97.715 97.7135
97.7121 97.7107 97.7093 97.708 97.7067 97.7056 97.7045 97.7036 97.7029 97.7023
97.7018 97.7015 97.5546 97.5543 97.5538 97.5532 97.5524 97.5514 97.5503 97.5491
97.5477 97.5463 97.5449 97.5434 97.5418 97.5403 97.5389 97.5374 97.5361 97.5349
97.5338 97.5328 97.532 97.5313 97.5308 97.5306 97.3853 97.385 97.3845 97.3838
97.3829 97.3819 97.3807 97.3794 97.3779 97.3764 97.3748 97.3732 97.3716 97.3699
97.3683 97.3668 97.3654 97.364 97.3628 97.3618 97.3609 97.3602 97.3597 97.3594
97.2162 97.2159 97.2153 97.2146 97.2136 97.2125 97.2112 97.2097 97.2082 97.2065
97.2048 97.203 97.2013 97.1995 97.1978 97.1961 97.1945 97.1931 97.1918 97.1906
97.1897 97.1889 97.1883 97.188 97.0473 97.047 97.0464 97.0455 97.0445 97.0432
97.0418 97.0403 97.0385 97.0367 97.0348 97.0329 97.0309 97.029 97.0271 97.0253
97.0236 97.022 97.0205 97.0193 97.0182 97.0174 97.0168 97.0164 96.8787 96.8783
96.8776 96.8767 96.8756 96.8742 96.8726 96.8709 96.869 96.867 96.8649 96.8628
96.8606 96.8585 96.8564 96.8544 96.8525 96.8507 96.8491 96.8477 96.8465 96.8456
96.8449 96.8445 96.7103 96.7099 96.7092 96.7081 96.7069 96.7053 96.7036 96.7017
96.6996 96.6974 96.6951 96.6927 96.6903 96.6879 96.6856 96.6833 96.6812 96.6793
96.6775 96.6759 96.6746 96.6736 96.6729 96.6724 96.5423 96.5418 96.541 96.5398
96.5384 96.5367 96.5348 96.5326 96.5303 96.5278 96.5252 96.5226 96.5199 96.5173
96.5147 96.5122 96.5098 96.5076 96.5056 96.5039 96.5025 96.5013 96.5005 96.5
96.3745 96.374 96.3731 96.3718 96.3702 96.3683 96.3662 96.3638 96.3612 96.3584
96.3555 96.3525 96.3496 96.3466 96.3437 96.3409 96.3382 96.3358 96.3336 96.3316
96.33 96.3287 96.3278 96.3272 96.2072 96.2066 96.2055 96.2041 96.2023 96.2002
96.1978 96.1951 96.1922 96.1891 96.1859 96.1825 96.1792 96.1758 96.1725 96.1694
96.1664 96.1637 96.1612 96.159 96.1572 96.1557 96.1547 96.154 96.0402 96.0395
96.0384 96.0368 96.0348 96.0324 96.0297 96.0267 96.0234 96.0199 96.0163 96.0125
96.0088 96.005 96.0013 95.9978 95.9944 95.9913 95.9885 95.9861 95.984 95.9824
95.9812 95.9805 95.8737 95.873 95.8717 95.8699 95.8677 95.865 95.8619 95.8585
95.8548 95.8509 95.8468 95.8426 95.8383 95.8341 95.8299 95.8259 95.8222 95.8187
95.8155 95.8127 95.8104 95.8086 95.8072 95.8064 95.7078 95.7069 95.7054 95.7034
95.7009 95.6979 95.6945 95.6906 95.6865 95.6821 95.6774 95.6727 95.6679 95.6631
95.6584 95.6539 95.6496 95.6457 95.6421 95.639 95.6363 95.6342 95.6327 95.6318
95.5424 95.5414 95.5398 95.5375 95.5347 95.5313 95.5274 95.5231 95.5184 95.5134
95.5082 95.5028 95.4974 95.492 95.4867 95.4816 95.4768 95.4723 95.4682 95.4647
95.4617 95.4593 95.4576 95.4566 95.3777 95.3766 95.3747 95.3722 95.369 95.3652
95.3608 95.3559 95.3506 95.345 95.3391 95.333 95.3269 95.3208 95.3148 95.309
95.3035 95.2985 95.2939 95.2899 95.2865 95.2838 95.2818 95.2806 95.2137 95.2125
95.2104 95.2075 95.2039 95.1996 95.1947 95.1892 95.1832 95.1769 95.1702 95.1633
95.1564 95.1495 95.1427 95.1361 95.1299 95.1242 95.119 95.1144 95.1105 95.1075
95.1053 95.1039 95.0506 95.0492 95.0468 95.0436 95.0396 95.0347 95.0291 95.0229
95.0162 95.009 95.0015 94.9937 94.9859 94.978 94.9703 94.9629 94.9558 94.9493
94.9434 94.9382 94.9338 94.9303 94.9278 94.9263 94.8884 94.8868 94.8842 94.8805
94.876 94.8705 94.8642 94.8572 94.8496 94.8415 94.833 94.8242 94.8153 94.8064
94.7977 94.7892 94.7812 94.7738 94.7671 94.7612 94.7562 94.7522 94.7494 94.7476
94.7273 94.7255 94.7225 94.7184 94.7133 94.7071 94.7 94.6922 94.6836 94.6744
94.6647 94.6548 94.6447 94.6347 94.6247 94.6152 94.6061 94.5976 94.59 94.5833
94.5776 94.5731 94.5698 94.5678 94.5673 94.5653 94.562 94.5574 94.5516 94.5447
94.5367 94.5278 94.5181 94.5077 94.4968 94.4856 94.4742 94.4627 94.4515 94.4406
94.4303 94.4207 94.4119 94.4043 94.3978 94.3926 94.3889 94.3866 94.4087 94.4065
94.4027 94.3976 94.391 94.3832 94.3743 94.3642 94.3533 94.3416 94.3293 94.3165
94.3036 94.2906 94.2779 94.2655 94.2537 94.2428 94.2329 94.2241 94.2167 94.2108
94.2065 94.2039 94.2517 94.2491 94.2449 94.2391 94.2318 94.223 94.2129 94.2016
94.1892 94.176 94.1621 94.1477 94.133 94.1183 94.1038 94.0898 94.0764 94.0639
94.0526 94.0426 94.0341 94.0274 94.0224 94.0194 94.0963 94.0934 94.0887 94.0822
94.074 94.0641 94.0527 94.04 94.0261 94.0112 93.9954 93.9791 93.9625 93.9458
93.9294 93.9134 93.8981 93.8839 93.8709 93.8595 93.8498 93.8421 93.8364 93.833
93.9428 93.9396 93.9343 93.927 93.9178 93.9067 93.8939 93.8796 93.8639 93.8471
93.8293 93.8109 93.7921 93.7732 93.7544 93.7362 93.7188 93.7025 93.6877 93.6746
93.6635 93.6547 93.6482 93.6442 93.7914 93.7879 93.782 93.7738 93.7634 93.751
93.7367 93.7206 93.703 93.684 93.6639 93.6431 93.6218 93.6003 93.579 93.5582
93.5384 93.5198 93.5028 93.4878 93.4751 93.4648 93.4574 93.4529 93.6425 93.6385
93.6319 93.6228 93.6112 93.5973 93.5812 93.5631 93.5433 93.5219 93.4993 93.4758
93.4516 93.4272 93.403 93.3793 93.3566 93.3354 93.3159 93.2987 93.284 93.2723
93.2637 93.2584 93.4961 93.4917 93.4844 93.4742 93.4613 93.4457 93.4277 93.4075
93.3852 93.3612 93.3357 93.3091 93.2817 93.254 93.2264 93.1994 93.1735 93.1491
93.1268 93.1069 93.0901 93.0765 93.0666 93.0605 93.3528 93.3479 93.3397 93.3283
93.3139 93.2966 93.2765 93.2538 93.2289 93.2019 93.1731 93.1431 93.1121 93.0807
93.0493 93.0185 92.9888 92.9608 92.9351 92.9123 92.8928 92.877 92.8655 92.8585
93.2127 93.2073 93.1982 93.1856 93.1696 93.1503 93.1279 93.1025 93.0746 93.0443
93.012 92.9781 92.943 92.9074 92.8716 92.8364 92.8024 92.7703 92.7407 92.7142
92.6916 92.6734 92.66 92.6518 93.0763 93.0703 93.0602 93.0463 93.0285 93.0071
92.9821 92.9539 92.9226 92.8887 92.8524 92.8142 92.7746 92.7341 92.6934 92.6532
92.6142 92.5772 92.543 92.5123 92.4861 92.4648 92.4492 92.4397 92.944 92.9373
92.9262 92.9108 92.8911 92.8674 92.8397 92.8083 92.7734 92.7355 92.6948 92.6517