<VTKFile type="UnstructuredGrid" version="1.0">
<UnstructuredGrid>
<FieldData>
<DataArray type="Float64" Name="TIME" NumberOfTuples="1" format="ascii" RangeMin="101" RangeMax="101">
101
</DataArray>
</FieldData>
<Piece NumberOfPoints="323" NumberOfCells="1121">
<Points>
<DataArray type="Float64" NumberOfComponents="3" format="ascii">
500 500 1500 375 500 1500 250.195 500 1500 125
500 1500 0 500 1500 500 375 1500 0 375
1500 374.836 370.263 1500 249.51 357.132 1500 124.362 313.804 1500
0 250.195 1500 500 249.805 1500 374.715 238.678 1500 249.409
216.555 1500 124.462 178.609 1500 500 125 1500 0 125
1500 374.79 112.702 1500 249.618 95.9801 1500 124.494 67.3999 1500
500 0 1500 375 0 1500 249.805 0 1500 125
0 1500 0 0 1500 348.761 337.827 1400.39 152.009 343.9
1395.15 353.101 166.615 1387.46 157.301 148.846 1380.83 500 0 1375.78
500 500 1374.9 0 500 1374.9 0 0 1374.9 67.545
500 1373.23 0 67.545 1373.23 500 373.528 1372.43 431.601 0
1371.16 184.557 500 1363.08 0 184.557 1363.08 314.611 0 1361.97
500 246.917 1361.03 251.326 401.692 1346.11 156.98 0 1340.71 342.466
500 1340.66 0 342.466 1340.66 416.447 70.7009 1333.49 278.417 92.7505
1317.41 500 122.497 1316.08 62.4981 437.502 1312.51 62.4981 250 1312.51
62.4981 62.4981 1312.51 250.397 249.762 1309.74 416.03 275.346 1305.11 424.545
411.814 1298.26 500 500 1249.8 0 500 1249.8 0 0
1249.8 500 0 1249.22 500 368.478 1248.61 97.8895 500 1244.13
0 97.8895 1244.13 400.349 0 1239.83 500 241.536 1228.9 143.585
366.704 1223.89 133.876 143.416 1223.19 352.613 352.004 1220.44 224.168 500
1220.04 0 224.168 1220.04 274.118 0 1219.92 358.266 146.958 1214.66
42.6755 167.308 1184.44 167.471 457.564 1184.39 500 121.527 1181.54 135.33
0 1178.35 363.336 500 1176.77 0 363.336 1176.77 500 345.291
1153.76 97.7119 70.3127 1136.53 71.2614 401.827 1136.43 437.502 437.502 1125
250 250 1125 500 500 1125 0 500 1125 500
0 1125 0 0 1125 77.5516 262.146 1120.47 262.9 422.935
1118.91 115.274 500 1113.29 0 115.274 1113.29 500 241.838 1111.77
383.08 0 1110.99 430.347 80.0281 1108.67 237.919 76.4679 1105.52 430.824
245.658 1104.54 255.184 0 1086.71 241.44 500 1082.13 0 241.44
1082.13 500 122.632 1058.11 500 368.894 1053.25 125.882 0 1047.76
371.943 500 1042.99 0 371.943 1042.99 157.391 363.967 1037.59 135.547
149.064 1031.39 347.272 141.959 1025.11 354.705 345.193 1024.9 500 0
1000.78 500 500 999.609 0 500 999.609 0 0 999.609
500 247.269 994.218 370.726 0 991.356 123.343 500 983.113 0
123.343 983.113 243.086 0 969.558 244.315 71.3161 969.483 250.433 500
956.121 0 250.433 956.121 70.1883 250.68 943.937 250.665 430.899 943.933
437.502 437.502 937.502 62.4981 437.502 937.502 250 250 937.502 62.4981
62.4981 937.502 500 124.118 935.087 431.12 248.666 934.4 500 373.657
934.201 121.984 0 926.762 376.438 500 918.24 0 376.438 918.24
344.436 0 901.071 500 500 875.391 0 500 875.391 0
0 875.391 500 0 874.219 500 249.222 872.161 240.924 0
859.701 126.932 500 857.204 0 126.932 857.204 349.997 364.26 847.955
336.73 144.607 845.814 156.249 156.249 843.751 136.561 351.234 838.974 254.14
500 831.475 0 254.14 831.475 500 374.58 810.843 500 124.708
810.829 122.169 0 807.456 367.52 0 803.532 378.252 500 795.051
0 378.252 795.051 94.9664 92.9733 769.695 427.072 250.094 759.318 75.801
400.493 758.459 500 500 750.586 0 500 750.586 0 0
750.586 250 250 750 500 0 749.414 500 249.668 747.969
400.408 95.2325 747.694 238.928 75.4725 746.713 407.323 406.283 745.389 246.216
0 744.985 258.077 431.901 742.488 74.7583 228.136 741.385 132.663 500
739.822 0 132.663 739.822 135.224 114.582 739.338 259.771 500 717.447
0 259.771 717.447 500 124.848 686.104 500 374.798 686.099 123.852
0 686.026 373.139 0 685.421 379.065 500 675.828 0 379.065
675.828 157.612 358.641 657.291 156.27 500 649.682 0 156.27 649.682
149.146 140.383 646.998 364.197 349.142 645.022 353.2 145.333 644.581 500
500 625.781 0 500 625.781 0 0 625.781 500 0
624.609 249.253 0 623.913 500 249.797 622.964 259.237 500 608.173
0 259.237 608.173 258.189 422.017 591.154 71.8767 272.771 578.818 62.4981
437.502 562.498 250 250 562.498 437.502 62.4981 562.498 62.4981 62.4981
562.498 125.332 0 562.369 250.686 91.775 562.31 375.135 0 562.25
408.48 248.768 561.37 500 124.896 561.152 500 374.831 560.689 435.19
432.891 559.92 377.398 500 556.652 0 377.398 556.652 131.98 500
552.293 0 131.98 552.293 500 0 500.391 251.386 0 500.193
500 500 499.219 0 500 499.219 0 0 499.219 500
249.832 497.512 252.437 500 493.903 0 252.437 493.903 358.573 143.106
479.227 143.795 142.084 478.802 355.23 352.65 478.749 156.249 343.751 468.747
127.374 0 438.48 376.552 0 437.414 374.066 500 436.112 0
374.066 436.112 500 124.924 435.804 500 374.864 434.941 125.662 500
434.35 0 125.662 434.35 254.406 0 376.164 95.3918 94.4868 375.969
500 500 375 0 500 375 500 0 375 0
0 375 250 250 374.996 96.2401 403.425 374.463 408.126 94.4227
374.337 247.183 500 374.301 0 247.183 374.301 403.152 403.96 374.142
500 249.896 371.275 252.419 72.3808 366.043 250.69 425.07 364.659 426.469
250.756 364.148 74.4535 248.638 363.335 133.047 0 317.766 367.618 500
317.172 0 367.618 317.172 378.197 0 310.992 122.597 500 310.769
0 122.597 310.769 500 124.976 309.979 500 374.964 307.781 340.307
339.895 287.269 160.071 348.378 279.175 147.077 153.347 277.977 360.928 155.093
274.285 240.786 500 253.291 0 240.786 253.291 259.867 0 253.148
500 500 250.781 0 500 250.781 0 0 250.781 500
0 250.195 500 250.036 242.969 235.385 72.8545 217.05 343.696 500
213.484 0 343.696 213.484 156.633 0 213.275 417.094 273.37 209.489
267.37 423.55 203.423 441.317 73.8418 201.118 79.539 265.674 192.348 69.8496
406.609 192.333 89.5932 66.3542 192.264 250 250 187.494 500 125.065
185.006 411.102 415.692 177.71 121.756 500 177.518 0 121.756 177.518
378.554 0 176.971 500 375.075 172.836 241.638 500 127.115 0
241.638 127.115 258.598 0 126.472 500 0 125.098 500 500
124.219 0 500 124.219 0 0 124.219 368.378 500 119.222
0 368.378 119.222 131.718 0 118.941 154.114 156.595 117.914 170.985
346.621 112.698 500 250.299 111.737 354.52 334.593 111.317 354.672 152.327
105.511 500 125.097 70.2902 500 500 0 375 500 0
249.805 500 0 125 500 0 0 500 0 124.494
432.6 0 249.618 404.02 0 374.79 387.298 0 500 375
0 0 375 0 124.462 321.391 0 249.409 283.445 0
374.715 261.322 0 500 250.195 0 0 249.805 0 124.362
186.196 0 249.51 142.868 0 374.836 129.737 0 500 125
0 0 125 0 500 0 0 375 0 0
250.195 0 0 125 0 0 0 0 0 </DataArray>
</Points>
<PointData>
<DataArray type="Float64" Name="ux" NumberOfComponents="1" format="ascii">
1.96589e-012 -2.77937e-007 2.43644e-009 3.33001e-007 -1.96589e-012 6.00158e-012 -7.48155e-012 -7.6201e-007 -3.49821e-007 2.62851e-007
-7.55815e-012 6.39611e-012 -6.76992e-007 -1.78515e-007 4.66113e-007 9.84629e-012 -6.08531e-012 -5.27153e-007 -5.42208e-007 -2.57265e-007
1.95205e-012 -4.9327e-007 -4.46524e-007 -2.73319e-007 -3.05444e-012 5.36433e-007 -4.33338e-007 7.42149e-007 3.80925e-008 6.75221e-012
5.98279e-012 -7.45907e-012 -2.12457e-012 -5.75252e-007 -9.48233e-012 1.22427e-011 8.47605e-007 -8.08135e-008 -1.37354e-011 1.6231e-007
1.33462e-011 2.18337e-007 1.81461e-007 2.13383e-007 -1.93855e-011 8.10578e-007 5.38775e-007 1.37869e-011 -1.94528e-007 1.47469e-007
2.70834e-007 3.82966e-007 3.06173e-007 8.90869e-008 6.09908e-012 -7.62912e-012 -4.16523e-012 5.91059e-012 1.15538e-011 -1.37762e-007
-1.10092e-011 4.06327e-007 1.09058e-011 3.69123e-008 4.26416e-007 2.46635e-007 1.54319e-007 -1.40957e-011 4.11251e-007 4.15802e-007
1.5266e-007 5.79146e-008 1.15054e-011 4.02897e-007 2.41129e-007 -1.46192e-011 8.21113e-012 2.89566e-007 2.39687e-008 9.00376e-008
2.99086e-007 7.92836e-012 -6.40527e-012 5.70652e-012 -5.22349e-012 9.99127e-008 2.12238e-007 5.89964e-008 -1.18668e-011 1.02189e-011
2.65635e-007 1.81806e-007 3.75439e-007 1.5907e-007 3.48854e-007 1.67035e-007 -1.26301e-011 1.12872e-011 1.09915e-011 2.27845e-007
1.08975e-007 -1.23752e-011 1.43273e-007 1.90852e-007 1.9855e-007 1.53643e-007 5.79723e-012 5.96978e-012 -5.93204e-012 -5.74512e-012
1.12362e-011 1.84018e-007 9.5766e-008 -1.19444e-011 2.07448e-007 2.01841e-007 1.1311e-007 -1.18983e-011 7.2105e-008 1.18008e-007
4.51464e-008 4.73753e-008 1.46543e-007 7.25502e-008 1.15951e-011 5.60456e-008 1.15728e-011 1.16918e-007 6.82896e-008 -1.16426e-011
1.25866e-007 5.89336e-012 -5.74362e-012 -5.9187e-012 5.87488e-012 1.16167e-011 1.26058e-007 6.22585e-008 -1.1782e-011 7.11643e-008
9.41811e-008 8.68821e-008 6.99733e-008 7.47228e-008 -1.12703e-011 1.1737e-011 1.17119e-011 6.65842e-008 8.55952e-008 4.66233e-008
-1.10852e-011 4.9151e-008 3.1073e-008 2.75923e-008 5.8975e-012 -5.62795e-012 -6.02298e-012 6.26116e-008 5.87204e-012 1.17482e-011
4.5578e-008 7.72779e-008 3.19324e-008 7.62733e-008 5.24134e-008 2.80344e-008 3.22542e-008 -1.09121e-011 5.50019e-008 4.4696e-008
-9.77631e-012 1.17601e-011 1.18005e-011 3.72348e-008 3.92122e-008 2.60704e-008 -1.07466e-011 2.97012e-008 2.94556e-008 -7.8608e-012
3.55446e-008 2.6535e-008 3.24139e-008 5.92967e-012 -5.67057e-012 -7.86349e-012 5.87082e-012 3.94136e-008 1.18032e-011 2.54296e-008
-9.7493e-012 2.70583e-008 1.16827e-008 9.66523e-009 2.35455e-008 1.13343e-008 9.82329e-009 1.9508e-008 2.96433e-008 2.04532e-008
1.29016e-008 1.17814e-011 1.18628e-011 9.05997e-009 1.43647e-008 -1.1045e-011 1.51455e-008 -1.08552e-011 5.88803e-012 2.10111e-008
5.92421e-012 -5.79929e-012 -5.97707e-012 1.18532e-011 1.5306e-008 -1.09555e-011 1.30378e-008 1.38283e-008 1.25829e-008 1.34101e-008
1.16265e-008 1.20035e-008 8.8376e-009 -1.13626e-011 1.18419e-011 1.1891e-011 9.52924e-009 -1.1417e-011 1.17443e-008 6.49442e-009
5.90646e-012 -5.96655e-012 5.90662e-012 -5.80634e-012 1.06052e-008 5.49972e-009 5.96643e-009 9.64433e-009 -1.12144e-011 5.5161e-009
1.19738e-011 1.10296e-008 9.72307e-009 4.58707e-009 4.87761e-009 6.49116e-009 5.6228e-009 -1.11116e-011 5.90038e-009 5.16589e-009
-1.16326e-011 1.18581e-011 1.22078e-011 5.49805e-009 5.27446e-009 5.15375e-009 4.89667e-009 4.73603e-009 -1.06938e-011 5.47808e-009
6.06069e-012 -8.05483e-012 -5.89915e-012 5.89193e-012 1.22409e-011 5.05951e-009 3.68984e-009 -8.46e-012 4.1466e-009 2.38395e-009
4.21041e-009 1.54235e-009 2.01192e-009 1.79178e-009 1.8459e-009 3.7682e-009 1.15685e-011 1.83158e-009 2.1766e-009 -1.32606e-011
2.35427e-009 1.37144e-011 2.40052e-009 -1.16683e-011 2.5205e-009 5.73813e-012 6.65458e-012 -6.0232e-012 -6.62825e-012 1.72623e-009
-1.14102e-011 1.90019e-009 2.23136e-009 1.91753e-009 1.2152e-011 1.73924e-009 1.97874e-009 9.54613e-012 1.95205e-012 5.98595e-021
7.09669e-021 3.87702e-021 -1.95205e-012 1.6261e-020 2.16199e-020 2.38848e-020 9.13067e-012 -5.80542e-012 2.60844e-020 3.06729e-020
1.7831e-020 4.61765e-012 -5.88814e-012 1.13244e-020 2.97239e-020 1.49248e-020 2.21088e-012 -9.34028e-012 3.07196e-012 7.94183e-021
2.31183e-020 1.64282e-020 -1.95205e-012 </DataArray>
<DataArray type="Float64" Name="uy" NumberOfComponents="1" format="ascii">
1.96589e-012 7.48157e-012 7.55816e-012 6.08527e-012 3.05442e-012 9.17459e-007 -7.71294e-007 6.5034e-007 -8.46485e-008 -5.82286e-007
-5.87534e-007 4.99432e-008 -2.80111e-007 -9.01567e-008 -3.57755e-007 2.71159e-007 -5.45081e-007 -6.12735e-007 -1.98821e-007 -3.72013e-007
-3.09282e-012 -6.15745e-012 -7.58027e-012 -7.47129e-012 -1.9659e-012 -3.09566e-007 2.21696e-007 5.89051e-007 1.14597e-007 -2.15642e-012
7.45906e-012 2.12457e-012 -7.44086e-012 9.48234e-012 -9.645e-008 -6.35779e-007 -9.64521e-012 1.37354e-011 7.66477e-007 -1.37964e-011
1.83104e-009 -3.28718e-007 -1.92659e-011 1.93855e-011 9.06897e-007 3.82955e-007 4.37733e-007 3.40523e-007 3.23514e-007 8.77979e-007
2.47438e-007 5.0507e-007 3.00861e-007 -2.59375e-007 7.62912e-012 4.16523e-012 -7.54882e-012 -4.25285e-012 -8.3476e-008 1.10092e-011
5.36371e-007 -1.10776e-011 2.23576e-007 3.03106e-007 5.26064e-007 4.64115e-008 1.40957e-011 8.92259e-007 -1.389e-011 3.3308e-007
6.57961e-007 1.04622e-007 3.24334e-007 -1.42599e-011 1.46192e-011 3.46984e-007 2.50403e-008 2.37379e-007 1.99387e-007 -2.42611e-008
3.49034e-007 6.40527e-012 5.22349e-012 -5.24545e-012 -6.266e-012 4.34906e-007 3.78949e-008 1.18669e-011 3.93291e-007 2.08532e-007
-1.15901e-011 1.47469e-007 1.65411e-007 2.37669e-007 -1.19635e-011 1.26301e-011 4.20032e-007 1.78865e-007 9.72233e-008 -1.17768e-011
1.23753e-011 2.20239e-007 1.87128e-007 2.32283e-007 1.75806e-007 1.42043e-007 -5.81237e-012 5.93204e-012 5.74512e-012 -5.78055e-012
1.36706e-007 -1.09502e-011 1.19444e-011 1.87364e-007 -9.96893e-012 9.18487e-008 1.18983e-011 2.19533e-007 1.94139e-007 6.37151e-008
4.09901e-008 6.16029e-008 1.53897e-007 7.70276e-008 8.97977e-008 1.29493e-007 6.51589e-008 -1.08914e-011 1.16426e-011 1.1245e-007
-7.86848e-012 5.74362e-012 5.9187e-012 -5.65256e-012 -7.81955e-012 9.23434e-008 -9.78673e-012 1.1782e-011 1.09214e-007 6.86516e-008
7.49612e-008 9.40382e-008 8.96795e-008 1.12703e-011 1.20436e-007 4.9634e-008 5.33493e-008 -1.10349e-011 -1.08574e-011 1.10852e-011
7.18934e-008 4.54077e-008 5.82356e-008 4.42598e-008 5.62795e-012 6.02299e-012 -5.73711e-012 6.4331e-008 -5.99797e-012 5.24825e-008
3.39187e-008 3.167e-008 2.9779e-008 -1.10529e-011 2.35923e-008 7.0897e-008 1.09121e-011 5.03913e-008 4.73e-008 9.77631e-012
6.3515e-008 3.02534e-008 2.79369e-008 -1.14602e-011 -1.15539e-011 1.07466e-011 3.85833e-008 3.36578e-008 7.8608e-012 3.94665e-008
2.97385e-008 2.70267e-008 2.84773e-008 5.67057e-012 7.8635e-012 -5.87396e-012 -5.88951e-012 -1.15511e-011 2.85336e-008 9.7493e-012
3.44597e-008 1.3916e-008 3.05266e-008 1.10924e-008 2.33462e-008 9.87701e-009 1.14405e-008 -1.17281e-011 1.27436e-008 -1.1676e-011
2.44083e-008 1.59441e-008 1.44656e-008 8.65523e-009 1.1045e-011 1.98735e-008 1.08552e-011 1.9497e-008 -5.84452e-012 -1.16707e-011
5.79929e-012 5.97707e-012 -5.95151e-012 1.63141e-008 1.09555e-011 2.0364e-008 1.19005e-008 1.39022e-008 1.25882e-008 1.35968e-008
-1.17234e-011 -1.16786e-011 1.13626e-011 1.1813e-008 9.94719e-009 8.82749e-009 1.1417e-011 1.13367e-008 -1.15089e-011 6.54649e-009
5.96655e-012 5.80634e-012 -5.80618e-012 -6.04509e-012 1.02059e-008 6.29892e-009 5.45078e-009 1.12144e-011 1.16483e-008 5.45206e-009
9.51605e-009 4.72755e-009 4.89241e-009 9.52384e-009 1.08787e-008 -1.1277e-011 1.11116e-011 6.52379e-009 -1.17296e-011 1.16326e-011
6.00101e-009 5.13841e-009 5.07041e-009 5.43529e-009 5.37637e-009 5.37054e-009 5.08574e-009 1.06938e-011 5.5449e-009 -1.07972e-011
8.05483e-012 5.89915e-012 -8.09486e-012 -5.87053e-012 5.05517e-009 2.32813e-009 8.46e-012 4.09929e-009 -8.51452e-012 4.29925e-009
2.18403e-009 1.93589e-009 4.37364e-009 2.24929e-009 1.95757e-009 3.83217e-009 2.51883e-009 1.99036e-009 1.32606e-011 2.57288e-009
-1.32294e-011 2.42553e-009 1.16683e-011 2.96302e-009 -1.1661e-011 -6.60093e-012 6.0232e-012 6.62825e-012 -6.02181e-012 1.14102e-011
2.12361e-009 -1.14073e-011 2.0415e-009 2.02536e-009 2.16678e-009 1.88113e-009 1.84225e-009 1.14919e-009 1.95205e-012 5.80542e-012
5.88814e-012 9.34028e-012 1.95205e-012 2.57961e-020 1.53215e-020 1.42865e-020 1.00474e-020 1.01485e-020 2.02473e-020 3.18626e-020
2.05552e-020 1.87974e-020 1.341e-020 3.2246e-020 2.38909e-020 1.50657e-020 6.54356e-021 1.11841e-020 -1.96586e-012 -9.32157e-012
-5.86576e-012 -5.79808e-012 -1.95205e-012 </DataArray>
<DataArray type="Float64" Name="uz" NumberOfComponents="1" format="ascii">
-14.8571 -14.8571 -14.8571 -14.8571 -14.8571 -14.8571 -14.8571 -14.8571 -14.8571 -14.8571
-14.8571 -14.8571 -14.8571 -14.8571 -14.8571 -14.8571 -14.8572 -14.8571 -14.8571 -14.8571
-14.8571 -14.8571 -14.8571 -14.8571 -14.8572 -13.8705 -13.8186 -13.7425 -13.6768 -13.6268
-13.6181 -13.6181 -13.6181 -13.6015 -13.6015 -13.5936 -13.581 -13.501 -13.501 -13.49
-13.4807 -13.3329 -13.2794 -13.2789 -13.2789 -13.2079 -13.0486 -13.0355 -13.0001 -13.0001
-13.0001 -12.9727 -12.9268 -12.859 -12.379 -12.379 -12.379 -12.3732 -12.3672 -12.3228
-12.3228 -12.2802 -12.172 -12.1223 -12.1154 -12.0882 -12.0842 -12.0842 -12.083 -12.0309
-11.7316 -11.7311 -11.7029 -11.6713 -11.6556 -11.6556 -11.4277 -11.2571 -11.2561 -11.1429
-11.1429 -11.1429 -11.1429 -11.1429 -11.1429 -11.098 -11.0825 -11.0269 -11.0269 -11.0118
-11.0041 -10.9811 -10.9499 -10.9402 -10.7636 -10.7182 -10.7182 -10.4803 -10.4322 -10.3778
-10.3306 -10.3306 -10.2771 -10.2157 -10.1535 -10.1514 -9.91249 -9.90089 -9.90089 -9.90089
-9.84749 -9.81915 -9.7375 -9.7375 -9.60324 -9.6025 -9.47015 -9.47015 -9.34947 -9.34943
-9.28573 -9.28573 -9.28573 -9.28574 -9.26181 -9.25501 -9.25304 -9.17936 -9.09495 -9.09495
-8.92489 -8.67054 -8.67054 -8.67054 -8.65893 -8.63855 -8.51513 -8.4904 -8.4904 -8.39879
-8.37759 -8.35715 -8.30984 -8.23556 -8.23556 -8.03121 -8.03107 -7.99766 -7.95879 -7.87479
-7.87479 -7.62365 -7.52086 -7.51236 -7.43438 -7.43438 -7.43438 -7.42857 -7.42277 -7.40846
-7.40573 -7.39602 -7.3829 -7.3789 -7.35417 -7.34324 -7.32776 -7.32776 -7.32297 -7.10614
-7.10614 -6.7957 -6.79565 -6.79492 -6.78893 -6.69392 -6.69392 -6.51031 -6.43495 -6.43495
-6.40836 -6.38879 -6.38442 -6.19821 -6.19821 -6.19821 -6.1866 -6.17971 -6.17031 -6.02381
-6.02381 -5.85524 -5.73305 -5.57141 -5.57141 -5.57141 -5.57141 -5.57013 -5.56955 -5.56895
-5.56024 -5.55808 -5.55349 -5.54587 -5.51351 -5.51351 -5.47033 -5.47033 -4.95625 -4.95429
-4.94465 -4.94465 -4.94465 -4.92774 -4.89199 -4.89199 -4.74663 -4.74242 -4.7419 -4.64283
-4.34304 -4.33248 -4.31959 -4.31959 -4.31654 -4.30799 -4.30213 -4.30213 -3.72582 -3.72388
-3.71429 -3.71429 -3.71429 -3.71429 -3.71425 -3.70897 -3.70772 -3.70736 -3.70736 -3.70579
-3.67739 -3.62557 -3.61186 -3.6068 -3.59875 -3.1474 -3.14151 -3.14151 -3.0803 -3.07809
-3.07809 -3.07027 -3.0485 -2.84533 -2.76516 -2.7533 -2.71673 -2.50879 -2.50879 -2.50737
-2.48393 -2.48393 -2.48393 -2.47812 -2.40655 -2.14983 -2.11451 -2.11451 -2.11244 -2.07494
-2.01486 -1.99203 -1.90516 -1.90501 -1.90433 -1.85708 -1.83244 -1.76018 -1.75827 -1.75827
-1.75286 -1.7119 -1.25904 -1.25904 -1.25268 -1.23907 -1.23036 -1.23036 -1.23036 -1.18087
-1.18087 -1.17808 -1.16791 -1.11625 -1.10673 -1.10257 -1.04506 -0.696208 -8.72358e-012 -1.17965e-011
-9.51672e-012 -4.93889e-012 -7.03623e-012 -2.11709e-011 -2.41203e-011 -2.65493e-011 -1.3805e-011 -1.31963e-011 -2.70252e-011 -2.8763e-011
-2.86839e-011 -1.40187e-011 -1.40575e-011 -3.32335e-011 -3.24865e-011 -2.90314e-011 -1.39431e-011 -1.59402e-011 -4.58341e-012 -1.40962e-011
-1.5246e-011 -2.34613e-011 -4.58341e-012 </DataArray>
</PointData>
<Cells>
<DataArray type="Int64" Name="connectivity" format="ascii">
17 20 21 36 12 11 15 40 7 5
11 35 7 1 5 35 17 21 18 39
12 17 13 27 7 12 8 25 7 2
1 25 8 3 2 37 16 19 24 34
6 4 3 33 10 6 9 44 16 10
14 38 24 19 23 32 9 3 8 26
14 18 19 28 19 22 23 42 8 2
7 25 8 12 13 25 13 17 18 27
21 22 18 39 5 1 0 30 7 11
12 25 12 15 17 27 17 15 20 36
305 298 299 286 310 311 306 294 315 316
311 297 315 319 316 297 305 299 304 289
310 305 309 295 315 310 314 296 315 320
319 296 304 300 303 282 314 321 320 291
307 303 302 287 308 303 307 290 308 312
313 283 313 317 321 291 317 322 321 288
312 317 313 283 307 312 308 290 302 303
301 287 313 321 314 291 308 304 303 293
303 300 301 282 314 320 315 296 314 310
309 296 309 305 304 295 299 300 304 289
316 319 318 297 315 311 310 296 310 306
305 295 305 306 298 286 42 32 23 19
42 56 32 50 84 56 73 60 109 84
99 88 133 109 127 123 156 133 147 138
185 156 173 167 212 185 197 196 233 212
220 227 262 233 245 250 291 288 262 274
73 42 68 64 245 220 228 241 136 114
130 115 163 136 148 161 187 163 174 161
228 209 221 241 259 228 248 241 284 319
320 296 36 20 29 15 36 57 61 45
61 83 90 91 90 106 111 91 111 134
130 124 148 158 174 160 221 232 248 236
280 285 319 297 285 318 319 297 263 285
280 271 232 248 251 263 224 221 232 208
186 208 199 195 158 174 171 186 146 148
158 134 106 134 111 124 83 106 90 91
72 61 83 57 29 57 36 45 280 319
284 296 248 228 221 241 174 163 148 161
130 114 111 115 61 39 36 45 39 21
36 17 284 320 291 314 284 268 259 265
259 245 228 241 228 220 209 241 209 197
187 198 187 173 163 161 163 147 136 161
136 127 114 115 94 73 68 92 68 42
39 46 18 42 39 22 291 262 268 274
268 262 245 274 245 233 220 229 220 212
197 196 197 185 173 196 173 156 147 151
147 133 127 123 127 109 99 123 99 84
73 77 73 56 42 50 44 31 6 33
44 55 31 48 82 55 75 59 108 82
101 87 132 108 129 121 155 132 150 137
184 155 176 166 211 184 205 193 231 211
223 226 261 231 247 249 290 287 261 273
290 307 287 303 75 44 67 63 150 129
144 142 247 223 238 244 144 117 138 118
170 144 167 165 215 190 207 192 238 215
227 244 258 238 250 244 60 34 56 50
60 84 88 77 88 109 113 99 113 133
138 123 138 156 167 151 167 185 179 173
179 185 207 196 207 212 227 196 227 233
250 229 250 262 279 274 279 288 317 274
262 288 279 274 185 212 207 196 109 133
113 123 34 32 56 50 279 317 283 292
250 238 227 244 207 190 179 192 179 170
167 165 138 117 113 118 113 96 88 103
60 38 34 50 283 312 290 308 283 267
258 272 258 247 238 244 238 223 215 244
215 205 190 192 190 176 170 165 170 150
144 165 144 129 117 118 117 101 96 118
96 75 67 85 67 44 38 49 44 10
38 49 290 261 267 273 267 261 247 273
247 231 223 235 223 211 205 193 205 184
176 193 176 155 150 153 150 132 129 121
129 108 101 121 82 75 101 78 75 55
44 48 31 4 6 33 43 30 1 35
43 54 30 53 81 54 74 58 107 81
100 98 131 107 128 120 154 131 149 145
183 154 175 172 210 183 204 203 230 210
222 225 260 230 246 252 289 286 260 277
289 299 286 305 1 2 43 25 74 43
66 65 149 128 143 139 246 222 237 242
143 116 137 119 169 143 166 164 214 189
206 191 237 214 226 242 257 237 249 242
59 33 55 48 59 82 87 78 87 108
112 101 112 132 137 121 137 155 166 153
166 184 178 176 178 184 206 193 206 211
226 193 226 231 249 235 249 261 278 273
303 287 278 301 261 287 278 273 184 211
206 193 108 132 112 121 33 31 55 48
278 301 282 303 249 237 226 242 206 189
178 191 178 169 166 164 137 116 112 119
112 95 87 102 59 37 33 48 37 3
33 26 282 300 289 304 282 266 257 270
257 246 237 242 237 222 214 242 214 204
189 191 189 175 169 164 169 149 143 164
143 128 116 119 116 100 95 119 95 74
66 86 66 43 37 41 43 2 37 41
289 260 266 277 266 260 246 277 246 230
222 239 222 210 204 203 204 183 175 203
175 154 149 162 149 131 128 120 128 107
100 120 81 74 100 79 74 54 43 53
47 29 15 45 47 57 29 45 83 61
72 91 106 83 97 91 158 148 146 160
171 174 158 160 208 186 201 195 232 221
224 236 251 248 232 236 285 263 276 271
47 15 40 27 40 11 35 25 62 40
58 52 89 62 76 93 110 89 98 93
135 110 126 125 159 135 145 152 188 159
172 152 213 188 202 200 240 213 225 243
264 240 252 243 35 54 58 53 58 81
76 79 76 81 98 79 98 107 126 120
126 131 145 120 145 154 172 162 172 183
202 203 202 210 225 203 225 230 252 239
252 260 281 277 281 286 306 277 260 286
281 277 183 210 202 203 107 131 126 120
30 54 35 53 306 294 281 295 252 240
225 243 172 159 145 152 98 89 76 93
58 40 35 52 294 311 297 296 294 276
264 269 264 251 240 243 240 224 213 243
213 201 188 200 188 171 159 152 159 146
135 152 135 124 110 125 110 97 89 93
89 72 62 93 62 47 40 52 297 285
276 271 276 263 251 271 251 232 224 236
224 208 201 195 201 186 171 195 171 158
146 160 124 106 97 111 97 83 72 91
72 57 47 45 12 11 40 25 15 12
40 27 11 7 35 25 18 17 39 27
13 12 27 25 1 7 25 35 8 3
37 26 2 8 37 41 16 19 34 14
19 24 34 32 3 6 33 26 9 10
44 49 10 14 38 49 14 16 38 34
9 3 26 6 14 18 28 13 18 19
28 42 19 22 42 18 8 2 25 41
13 8 25 26 18 13 27 28 39 42
18 46 15 17 27 45 17 15 36 45
306 310 294 295 311 315 297 296 315 319
297 296 304 305 289 295 309 310 295 296
303 304 282 293 308 303 290 293 313 308
283 272 313 317 291 292 317 321 291 288
317 313 283 292 314 313 291 292 308 304
293 309 309 314 296 292 304 309 295 293
311 310 296 294 306 305 295 277 305 306
286 277 42 32 19 34 56 73 60 50
73 84 60 77 84 99 88 77 133 147
138 123 147 156 138 151 156 173 167 151
212 220 227 196 220 233 227 229 233 245
250 229 245 262 250 274 73 42 64 50
42 68 64 46 68 73 64 92 209 221
241 216 248 259 241 265 29 36 15 45
106 111 91 97 134 130 124 148 280 285
297 271 319 280 297 296 280 263 271 248
208 199 195 221 199 186 195 174 284 280
296 265 221 248 241 236 114 111 115 94
39 36 45 17 291 284 314 292 187 209
198 199 173 163 161 147 94 73 92 99
68 94 92 90 39 68 46 61 245 268
274 265 185 173 196 179 44 31 33 48
55 75 59 48 75 82 59 78 82 101
87 78 132 150 137 121 150 155 137 153
155 176 166 153 211 223 226 193 223 231
226 235 231 247 249 235 247 261 249 273
287 290 303 273 75 44 63 48 44 67
63 49 67 75 63 85 150 129 142 121
129 144 142 118 144 150 142 165 138 144
118 165 250 258 244 272 109 113 99 123
113 88 99 103 288 317 274 291 317 279
274 292 283 279 292 272 227 250 244 229
179 170 165 190 117 113 118 96 113 138
118 123 113 96 103 118 96 88 103 85
60 38 50 64 290 283 308 272 190 176
165 192 176 170 165 150 117 101 118 129
101 96 118 85 38 67 64 60 247 267
273 272 43 30 35 53 1 43 35 25
54 74 58 53 74 81 58 79 81 100
98 79 100 107 98 120 131 149 145 120
149 154 145 162 154 175 172 162 175 183
172 203 210 222 225 203 222 230 225 239
230 246 252 239 246 260 252 277 286 289
305 277 2 43 25 41 74 43 65 53
43 66 65 41 66 74 65 86 149 128
139 120 128 143 139 119 143 149 139 164
137 143 119 164 249 257 242 270 108 112
101 121 112 87 101 102 184 178 176 193
278 287 303 273 282 278 303 293 226 249
242 235 178 169 164 189 116 112 119 95
112 137 119 121 112 95 102 119 95 87
102 86 59 37 48 63 33 37 26 48
289 282 304 270 282 266 270 289 189 175
164 191 175 169 164 149 116 100 119 128
100 95 119 86 37 66 63 59 246 266
277 270 15 47 45 27 40 47 27 52
35 40 25 52 172 188 152 181 252 264
243 269 145 126 120 139 306 281 277 295
294 281 295 269 225 252 243 239 296 294
276 297 264 251 243 256 251 240 243 224
188 171 152 182 171 159 152 146 110 97
93 125 97 89 93 72 263 251 271 248
224 208 195 221 186 171 195 174 72 57
45 61 25 27 40 12 40 27 25 52
17 39 27 45 39 18 27 46 27 13
25 51 37 8 26 41 19 34 14 28
6 33 26 44 9 10 49 14 44 9
49 26 14 38 49 28 38 14 34 28
28 14 13 26 19 28 42 34 28 18
42 46 25 8 41 26 25 13 26 51
13 27 28 51 27 18 28 46 294 296
295 310 289 304 295 270 295 296 294 269
295 309 296 275 304 282 293 270 303 290
293 273 290 308 293 272 313 308 272 293
317 291 292 274 296 309 292 275 309 295
293 275 295 304 293 270 305 295 277 289
42 32 34 50 73 60 50 64 60 73
77 64 99 88 77 103 147 138 123 141
138 147 151 141 173 167 151 165 220 227
196 217 227 220 229 217 250 245 274 255
42 64 50 28 68 64 46 69 64 42
46 28 73 64 92 77 64 68 92 69
209 221 216 199 221 241 216 236 241 209
216 217 259 241 265 245 241 248 265 256
111 91 97 104 130 124 148 140 124 134
148 146 297 280 271 296 91 61 72 69
284 280 265 259 280 296 265 256 284 292
296 314 248 241 236 256 111 115 94 92
115 114 94 99 291 284 292 265 296 292
284 265 209 198 199 216 73 92 99 77
92 94 99 115 92 68 90 69 68 46
61 69 46 39 61 45 245 268 265 259
268 274 265 291 274 245 265 255 173 196
179 180 33 44 48 26 75 59 48 63
59 75 78 63 101 87 78 102 150 137
121 142 137 150 153 142 223 226 193 219
226 223 235 219 249 247 273 254 44 63
48 26 67 63 49 64 63 44 49 26
75 63 85 78 63 67 85 64 129 142
121 118 150 142 165 153 138 144 165 167
118 138 165 141 258 244 272 247 244 250
272 255 113 99 123 103 279 274 292 255
279 292 272 255 250 244 229 255 244 227
229 217 165 179 190 192 138 118 123 141
118 113 123 103 96 103 118 85 96 88
85 67 64 103 88 85 38 50 64 28
190 176 192 205 176 165 192 177 165 176
150 153 101 118 129 121 101 96 85 75
118 101 85 102 64 67 38 49 247 267
272 258 267 273 272 290 273 247 272 254
35 43 53 25 74 58 53 65 58 74
79 65 98 100 120 105 149 145 120 139
145 149 162 139 175 172 162 181 172 175
203 181 222 225 203 218 225 222 239 218
252 246 277 253 43 25 41 65 43 65
53 25 66 65 41 63 74 65 86 79
65 66 86 63 128 139 120 119 149 139
164 162 137 143 164 166 119 137 164 142
257 242 270 246 242 249 270 254 112 101
121 102 178 176 193 177 282 278 293 270
278 303 293 273 249 242 235 254 242 226
235 219 164 178 189 191 137 119 121 142
119 112 121 102 95 102 119 86 95 87
86 66 63 102 87 86 37 48 63 26
189 175 191 204 175 164 191 181 164 175
149 162 100 119 128 120 100 95 86 74
119 100 86 105 63 66 37 41 47 27
52 69 25 35 52 53 188 152 181 182
243 252 269 253 145 126 139 125 126 120
139 105 281 277 295 269 294 281 269 264
252 243 239 253 243 225 239 218 276 294
296 269 264 251 256 276 251 243 256 236
188 171 182 201 171 152 182 160 97 93
125 104 93 97 72 91 251 271 248 256
195 224 221 216 171 195 174 182 45 72
61 69 39 27 45 46 27 25 52 51
34 38 28 50 28 14 26 49 13 28
26 51 28 42 34 50 41 25 26 51
27 28 51 46 295 289 270 277 295 296
269 275 290 293 273 272 313 308 293 309
272 313 293 292 291 292 274 265 309 292
275 293 292 296 275 265 295 293 275 270
77 60 64 88 77 99 103 92 123 147
141 127 147 151 141 161 138 165 151 167
227 196 217 207 196 220 217 197 220 229
217 241 274 250 255 279 64 46 69 51
46 64 28 51 64 92 77 103 92 64
69 80 221 216 199 195 241 216 236 256
216 221 236 224 241 209 217 220 209 216
217 198 216 241 217 234 241 265 245 255
248 265 256 280 265 241 256 255 111 91
104 90 91 97 104 93 97 111 104 124
130 124 140 104 124 148 140 146 148 130
140 136 280 271 296 256 271 297 296 276
91 61 69 90 72 91 69 93 296 265
256 275 236 248 256 251 111 115 92 104
94 111 92 90 115 114 99 127 291 284
265 268 198 199 216 182 99 92 115 103
68 90 69 61 90 92 69 104 46 61
69 45 265 274 255 292 173 196 180 197
196 179 180 207 179 173 180 167 78 59
63 87 78 101 102 85 153 137 142 166
226 193 219 206 223 192 193 205 223 235
219 244 273 249 254 278 63 49 64 51
49 63 26 51 63 85 78 102 85 75
78 101 70 64 67 60 85 63 64 80
142 121 118 102 142 165 153 177 151 165
138 141 165 118 141 142 244 272 247 254
250 272 255 279 272 244 255 254 99 123
103 127 244 229 255 217 229 250 255 245
244 227 217 215 165 179 192 180 118 123
141 103 103 118 85 102 88 103 64 77
64 38 28 49 176 192 205 193 192 176
177 193 165 176 153 177 101 118 121 102
272 267 290 283 272 273 254 293 58 53
65 52 79 58 65 76 120 98 105 126
162 145 139 152 172 162 181 152 162 175
181 164 175 203 181 204 203 172 181 202
225 203 218 202 203 222 218 204 222 239
218 242 246 277 253 270 252 269 277 281
25 41 65 51 65 53 25 52 65 41
63 51 65 86 79 105 86 74 79 100
71 63 66 59 86 65 63 80 139 120
119 105 139 164 162 181 164 137 166 142
164 119 142 139 249 270 254 278 270 242
254 253 193 178 177 206 278 293 270 254
293 278 273 254 242 235 254 219 235 249
254 247 242 226 219 214 164 178 191 177
119 121 142 102 102 119 86 105 87 102