<VTKFile type="UnstructuredGrid" version="1.0">
<UnstructuredGrid>
<FieldData>
<DataArray type="Float64" Name="TIME" NumberOfTuples="1" format="ascii" RangeMin="0" RangeMax="0">
0
</DataArray>
</FieldData>
<Piece NumberOfPoints="2025" NumberOfCells="1536">
<Points>
<DataArray type="Float64" NumberOfComponents="3" format="ascii">
500 500 1500 437.5 500 1500 375 500 1500 312.5
500 1500 250 500 1500 187.5 500 1500 125 500
1500 62.5 500 1500 0 500 1500 500 437.5 1500
437.5 437.5 1500 375 437.5 1500 312.5 437.5 1500 250
437.5 1500 187.5 437.5 1500 125 437.5 1500 62.5 437.5
1500 0 437.5 1500 500 375 1500 437.5 375 1500
375 375 1500 312.5 375 1500 250 375 1500 187.5
375 1500 125 375 1500 62.5 375 1500 0 375
1500 500 312.5 1500 437.5 312.5 1500 375 312.5 1500
312.5 312.5 1500 250 312.5 1500 187.5 312.5 1500 125
312.5 1500 62.5 312.5 1500 0 312.5 1500 500 250
1500 437.5 250 1500 375 250 1500 312.5 250 1500
250 250 1500 187.5 250 1500 125 250 1500 62.5
250 1500 0 250 1500 500 187.5 1500 437.5 187.5
1500 375 187.5 1500 312.5 187.5 1500 250 187.5 1500
187.5 187.5 1500 125 187.5 1500 62.5 187.5 1500 0
187.5 1500 500 125 1500 437.5 125 1500 375 125
1500 312.5 125 1500 250 125 1500 187.5 125 1500
125 125 1500 62.5 125 1500 0 125 1500 500
62.5 1500 437.5 62.5 1500 375 62.5 1500 312.5 62.5
1500 250 62.5 1500 187.5 62.5 1500 125 62.5 1500
62.5 62.5 1500 0 62.5 1500 500 0 1500 437.5
0 1500 375 0 1500 312.5 0 1500 250 0
1500 187.5 0 1500 125 0 1500 62.5 0 1500
0 0 1500 500 500 1437.5 437.5 500 1437.5 375
500 1437.5 312.5 500 1437.5 250 500 1437.5 187.5 500
1437.5 125 500 1437.5 62.5 500 1437.5 0 500 1437.5
500 437.5 1437.5 437.5 437.5 1437.5 375 437.5 1437.5 312.5
437.5 1437.5 250 437.5 1437.5 187.5 437.5 1437.5 125 437.5
1437.5 62.5 437.5 1437.5 0 437.5 1437.5 500 375 1437.5
437.5 375 1437.5 375 375 1437.5 312.5 375 1437.5 250
375 1437.5 187.5 375 1437.5 125 375 1437.5 62.5 375
1437.5 0 375 1437.5 500 312.5 1437.5 437.5 312.5 1437.5
375 312.5 1437.5 312.5 312.5 1437.5 250 312.5 1437.5 187.5
312.5 1437.5 125 312.5 1437.5 62.5 312.5 1437.5 0 312.5
1437.5 500 250 1437.5 437.5 250 1437.5 375 250 1437.5
312.5 250 1437.5 250 250 1437.5 187.5 250 1437.5 125
250 1437.5 62.5 250 1437.5 0 250 1437.5 500 187.5
1437.5 437.5 187.5 1437.5 375 187.5 1437.5 312.5 187.5 1437.5
250 187.5 1437.5 187.5 187.5 1437.5 125 187.5 1437.5 62.5
187.5 1437.5 0 187.5 1437.5 500 125 1437.5 437.5 125
1437.5 375 125 1437.5 312.5 125 1437.5 250 125 1437.5
187.5 125 1437.5 125 125 1437.5 62.5 125 1437.5 0
125 1437.5 500 62.5 1437.5 437.5 62.5 1437.5 375 62.5
1437.5 312.5 62.5 1437.5 250 62.5 1437.5 187.5 62.5 1437.5
125 62.5 1437.5 62.5 62.5 1437.5 0 62.5 1437.5 500
0 1437.5 437.5 0 1437.5 375 0 1437.5 312.5 0
1437.5 250 0 1437.5 187.5 0 1437.5 125 0 1437.5
62.5 0 1437.5 0 0 1437.5 500 500 1375 437.5
500 1375 375 500 1375 312.5 500 1375 250 500
1375 187.5 500 1375 125 500 1375 62.5 500 1375
0 500 1375 500 437.5 1375 437.5 437.5 1375 375
437.5 1375 312.5 437.5 1375 250 437.5 1375 187.5 437.5
1375 125 437.5 1375 62.5 437.5 1375 0 437.5 1375
500 375 1375 437.5 375 1375 375 375 1375 312.5
375 1375 250 375 1375 187.5 375 1375 125 375
1375 62.5 375 1375 0 375 1375 500 312.5 1375
437.5 312.5 1375 375 312.5 1375 312.5 312.5 1375 250
312.5 1375 187.5 312.5 1375 125 312.5 1375 62.5 312.5
1375 0 312.5 1375 500 250 1375 437.5 250 1375
375 250 1375 312.5 250 1375 250 250 1375 187.5
250 1375 125 250 1375 62.5 250 1375 0 250
1375 500 187.5 1375 437.5 187.5 1375 375 187.5 1375
312.5 187.5 1375 250 187.5 1375 187.5 187.5 1375 125
187.5 1375 62.5 187.5 1375 0 187.5 1375 500 125
1375 437.5 125 1375 375 125 1375 312.5 125 1375
250 125 1375 187.5 125 1375 125 125 1375 62.5
125 1375 0 125 1375 500 62.5 1375 437.5 62.5
1375 375 62.5 1375 312.5 62.5 1375 250 62.5 1375
187.5 62.5 1375 125 62.5 1375 62.5 62.5 1375 0
62.5 1375 500 0 1375 437.5 0 1375 375 0
1375 312.5 0 1375 250 0 1375 187.5 0 1375
125 0 1375 62.5 0 1375 0 0 1375 500
500 1312.5 437.5 500 1312.5 375 500 1312.5 312.5 500
1312.5 250 500 1312.5 187.5 500 1312.5 125 500 1312.5
62.5 500 1312.5 0 500 1312.5 500 437.5 1312.5 437.5
437.5 1312.5 375 437.5 1312.5 312.5 437.5 1312.5 250 437.5
1312.5 187.5 437.5 1312.5 125 437.5 1312.5 62.5 437.5 1312.5
0 437.5 1312.5 500 375 1312.5 437.5 375 1312.5 375
375 1312.5 312.5 375 1312.5 250 375 1312.5 187.5 375
1312.5 125 375 1312.5 62.5 375 1312.5 0 375 1312.5
500 312.5 1312.5 437.5 312.5 1312.5 375 312.5 1312.5 312.5
312.5 1312.5 250 312.5 1312.5 187.5 312.5 1312.5 125 312.5
1312.5 62.5 312.5 1312.5 0 312.5 1312.5 500 250 1312.5
437.5 250 1312.5 375 250 1312.5 312.5 250 1312.5 250
250 1312.5 187.5 250 1312.5 125 250 1312.5 62.5 250
1312.5 0 250 1312.5 500 187.5 1312.5 437.5 187.5 1312.5
375 187.5 1312.5 312.5 187.5 1312.5 250 187.5 1312.5 187.5
187.5 1312.5 125 187.5 1312.5 62.5 187.5 1312.5 0 187.5
1312.5 500 125 1312.5 437.5 125 1312.5 375 125 1312.5
312.5 125 1312.5 250 125 1312.5 187.5 125 1312.5 125
125 1312.5 62.5 125 1312.5 0 125 1312.5 500 62.5
1312.5 437.5 62.5 1312.5 375 62.5 1312.5 312.5 62.5 1312.5
250 62.5 1312.5 187.5 62.5 1312.5 125 62.5 1312.5 62.5
62.5 1312.5 0 62.5 1312.5 500 0 1312.5 437.5 0
1312.5 375 0 1312.5 312.5 0 1312.5 250 0 1312.5
187.5 0 1312.5 125 0 1312.5 62.5 0 1312.5 0
0 1312.5 500 500 1250 437.5 500 1250 375 500
1250 312.5 500 1250 250 500 1250 187.5 500 1250
125 500 1250 62.5 500 1250 0 500 1250 500
437.5 1250 437.5 437.5 1250 375 437.5 1250 312.5 437.5
1250 250 437.5 1250 187.5 437.5 1250 125 437.5 1250
62.5 437.5 1250 0 437.5 1250 500 375 1250 437.5
375 1250 375 375 1250 312.5 375 1250 250 375
1250 187.5 375 1250 125 375 1250 62.5 375 1250
0 375 1250 500 312.5 1250 437.5 312.5 1250 375
312.5 1250 312.5 312.5 1250 250 312.5 1250 187.5 312.5
1250 125 312.5 1250 62.5 312.5 1250 0 312.5 1250
500 250 1250 437.5 250 1250 375 250 1250 312.5
250 1250 250 250 1250 187.5 250 1250 125 250
1250 62.5 250 1250 0 250 1250 500 187.5 1250
437.5 187.5 1250 375 187.5 1250 312.5 187.5 1250 250
187.5 1250 187.5 187.5 1250 125 187.5 1250 62.5 187.5
1250 0 187.5 1250 500 125 1250 437.5 125 1250
375 125 1250 312.5 125 1250 250 125 1250 187.5
125 1250 125 125 1250 62.5 125 1250 0 125
1250 500 62.5 1250 437.5 62.5 1250 375 62.5 1250
312.5 62.5 1250 250 62.5 1250 187.5 62.5 1250 125
62.5 1250 62.5 62.5 1250 0 62.5 1250 500 0
1250 437.5 0 1250 375 0 1250 312.5 0 1250
250 0 1250 187.5 0 1250 125 0 1250 62.5
0 1250 0 0 1250 500 500 1187.5 437.5 500
1187.5 375 500 1187.5 312.5 500 1187.5 250 500 1187.5
187.5 500 1187.5 125 500 1187.5 62.5 500 1187.5 0
500 1187.5 500 437.5 1187.5 437.5 437.5 1187.5 375 437.5
1187.5 312.5 437.5 1187.5 250 437.5 1187.5 187.5 437.5 1187.5
125 437.5 1187.5 62.5 437.5 1187.5 0 437.5 1187.5 500
375 1187.5 437.5 375 1187.5 375 375 1187.5 312.5 375
1187.5 250 375 1187.5 187.5 375 1187.5 125 375 1187.5
62.5 375 1187.5 0 375 1187.5 500 312.5 1187.5 437.5
312.5 1187.5 375 312.5 1187.5 312.5 312.5 1187.5 250 312.5
1187.5 187.5 312.5 1187.5 125 312.5 1187.5 62.5 312.5 1187.5
0 312.5 1187.5 500 250 1187.5 437.5 250 1187.5 375
250 1187.5 312.5 250 1187.5 250 250 1187.5 187.5 250
1187.5 125 250 1187.5 62.5 250 1187.5 0 250 1187.5
500 187.5 1187.5 437.5 187.5 1187.5 375 187.5 1187.5 312.5
187.5 1187.5 250 187.5 1187.5 187.5 187.5 1187.5 125 187.5
1187.5 62.5 187.5 1187.5 0 187.5 1187.5 500 125 1187.5
437.5 125 1187.5 375 125 1187.5 312.5 125 1187.5 250
125 1187.5 187.5 125 1187.5 125 125 1187.5 62.5 125
1187.5 0 125 1187.5 500 62.5 1187.5 437.5 62.5 1187.5
375 62.5 1187.5 312.5 62.5 1187.5 250 62.5 1187.5 187.5
62.5 1187.5 125 62.5 1187.5 62.5 62.5 1187.5 0 62.5
1187.5 500 0 1187.5 437.5 0 1187.5 375 0 1187.5
312.5 0 1187.5 250 0 1187.5 187.5 0 1187.5 125
0 1187.5 62.5 0 1187.5 0 0 1187.5 500 500
1125 437.5 500 1125 375 500 1125 312.5 500 1125
250 500 1125 187.5 500 1125 125 500 1125 62.5
500 1125 0 500 1125 500 437.5 1125 437.5 437.5
1125 375 437.5 1125 312.5 437.5 1125 250 437.5 1125
187.5 437.5 1125 125 437.5 1125 62.5 437.5 1125 0
437.5 1125 500 375 1125 437.5 375 1125 375 375
1125 312.5 375 1125 250 375 1125 187.5 375 1125
125 375 1125 62.5 375 1125 0 375 1125 500
312.5 1125 437.5 312.5 1125 375 312.5 1125 312.5 312.5
1125 250 312.5 1125 187.5 312.5 1125 125 312.5 1125
62.5 312.5 1125 0 312.5 1125 500 250 1125 437.5
250 1125 375 250 1125 312.5 250 1125 250 250
1125 187.5 250 1125 125 250 1125 62.5 250 1125
0 250 1125 500 187.5 1125 437.5 187.5 1125 375
187.5 1125 312.5 187.5 1125 250 187.5 1125 187.5 187.5
1125 125 187.5 1125 62.5 187.5 1125 0 187.5 1125
500 125 1125 437.5 125 1125 375 125 1125 312.5
125 1125 250 125 1125 187.5 125 1125 125 125
1125 62.5 125 1125 0 125 1125 500 62.5 1125
437.5 62.5 1125 375 62.5 1125 312.5 62.5 1125 250
62.5 1125 187.5 62.5 1125 125 62.5 1125 62.5 62.5
1125 0 62.5 1125 500 0 1125 437.5 0 1125
375 0 1125 312.5 0 1125 250 0 1125 187.5
0 1125 125 0 1125 62.5 0 1125 0 0
1125 500 500 1062.5 437.5 500 1062.5 375 500 1062.5
312.5 500 1062.5 250 500 1062.5 187.5 500 1062.5 125
500 1062.5 62.5 500 1062.5 0 500 1062.5 500 437.5
1062.5 437.5 437.5 1062.5 375 437.5 1062.5 312.5 437.5 1062.5
250 437.5 1062.5 187.5 437.5 1062.5 125 437.5 1062.5 62.5
437.5 1062.5 0 437.5 1062.5 500 375 1062.5 437.5 375
1062.5 375 375 1062.5 312.5 375 1062.5 250 375 1062.5
187.5 375 1062.5 125 375 1062.5 62.5 375 1062.5 0
375 1062.5 500 312.5 1062.5 437.5 312.5 1062.5 375 312.5
1062.5 312.5 312.5 1062.5 250 312.5 1062.5 187.5 312.5 1062.5
125 312.5 1062.5 62.5 312.5 1062.5 0 312.5 1062.5 500
250 1062.5 437.5 250 1062.5 375 250 1062.5 312.5 250
1062.5 250 250 1062.5 187.5 250 1062.5 125 250 1062.5
62.5 250 1062.5 0 250 1062.5 500 187.5 1062.5 437.5
187.5 1062.5 375 187.5 1062.5 312.5 187.5 1062.5 250 187.5
1062.5 187.5 187.5 1062.5 125 187.5 1062.5 62.5 187.5 1062.5
0 187.5 1062.5 500 125 1062.5 437.5 125 1062.5 375
125 1062.5 312.5 125 1062.5 250 125 1062.5 187.5 125
1062.5 125 125 1062.5 62.5 125 1062.5 0 125 1062.5
500 62.5 1062.5 437.5 62.5 1062.5 375 62.5 1062.5 312.5
62.5 1062.5 250 62.5 1062.5 187.5 62.5 1062.5 125 62.5
[...]
<PointData>
<DataArray type="Float64" Name="ux" NumberOfComponents="1" format="ascii">
2.13815e-013 -1.64487e-008 -2.16338e-008 -2.25663e-008 -2.02255e-008 -1.2127e-008 -1.68603e-009 5.26561e-009 -2.13815e-013 4.27631e-013
-1.27355e-008 -2.15112e-008 -2.6634e-008 -2.22567e-008 -1.27585e-008 -2.04485e-009 5.34045e-009 -4.27631e-013 4.27631e-013 -3.03111e-009
-2.12132e-008 -3.51322e-008 -2.23936e-008 -1.36494e-008 -6.41044e-009 4.86508e-009 -4.27631e-013 4.27631e-013 2.92332e-009 -2.01469e-008
-3.86627e-008 -2.01315e-008 -1.38833e-008 -1.06673e-008 5.0826e-009 -4.27631e-013 4.27631e-013 5.66491e-009 -1.68278e-008 -3.69234e-008
-2.27872e-008 -1.14794e-008 -4.04528e-009 5.94256e-009 -4.27631e-013 4.27631e-013 9.17806e-009 -9.17094e-009 -3.24581e-008 -2.03706e-008
-3.03035e-009 3.26169e-009 4.95446e-009 -4.27631e-013 4.27631e-013 6.84882e-009 -1.76149e-009 -2.30205e-008 -1.26094e-008 6.22009e-009
6.35355e-009 2.77299e-009 -4.27631e-013 4.27631e-013 -1.8366e-009 -4.32196e-009 -1.13947e-008 -6.21396e-009 4.39963e-009 7.63694e-009
6.9784e-009 -4.27631e-013 2.13815e-013 -5.35522e-009 -7.63985e-009 -7.67133e-009 -4.14645e-009 1.65379e-009 7.78836e-009 9.64139e-009
-2.13815e-013 4.27631e-013 6.93633e-009 3.78827e-009 2.60857e-009 -2.57045e-010 -2.77123e-009 -6.89417e-009 -1.0886e-008 -4.27631e-013
8.55263e-013 9.78862e-009 3.60619e-009 4.74738e-009 1.63555e-009 -2.40078e-009 -5.41307e-009 -1.55796e-008 -8.55263e-013 8.55263e-013
-1.59606e-008 4.1179e-009 2.91151e-008 3.576e-009 -1.19139e-009 -4.10541e-009 -1.32484e-008 -8.55264e-013 8.55263e-013 -1.88649e-008
4.0163e-009 3.26191e-008 -1.60627e-008 -3.49473e-010 1.95711e-008 -1.79747e-008 -8.55264e-013 8.55263e-013 -2.04212e-008 2.50109e-009
3.34031e-008 7.17049e-009 -1.36931e-009 -3.99889e-009 -1.26163e-008 -8.55263e-013 8.55263e-013 -2.25199e-008 1.86261e-011 3.13776e-008
5.29431e-009 -4.15406e-009 -6.34901e-009 -1.38747e-008 -8.55263e-013 8.55263e-013 -2.03145e-008 -2.38783e-008 2.76122e-008 2.19893e-009
-2.8575e-008 -7.95485e-009 4.71578e-009 -8.55262e-013 8.55263e-013 4.95864e-009 -9.56558e-010 1.0549e-009 -9.39189e-010 -6.12802e-009
-7.57844e-009 -1.3618e-008 -8.55263e-013 4.27631e-013 1.08393e-010 -3.11669e-010 6.07557e-009 -1.46557e-009 -5.64599e-009 -7.11075e-009
-9.56489e-009 -4.27631e-013 4.27631e-013 9.03708e-009 1.36038e-008 1.39052e-008 1.0427e-008 4.19581e-009 -2.50669e-009 -5.25081e-009
-4.27632e-013 8.55263e-013 6.3906e-009 1.402e-008 1.67924e-008 1.23548e-008 5.14731e-009 -2.59558e-009 -4.64377e-009 -8.55263e-013
8.55263e-013 3.71299e-009 1.37883e-008 1.95318e-008 1.5176e-008 6.70347e-009 6.14378e-010 -3.93831e-009 -8.55263e-013 8.55262e-013
5.28517e-011 1.29686e-008 2.03499e-008 1.74275e-008 7.4724e-009 3.64688e-010 -1.17581e-009 -8.55263e-013 8.55262e-013 -1.71876e-009
1.10057e-008 2.12444e-008 1.6226e-008 6.02648e-009 -4.56783e-010 -4.3183e-009 -8.55263e-013 8.55262e-013 -4.41568e-009 5.69104e-009
1.76287e-008 1.37233e-008 1.8085e-010 -5.49383e-009 -4.33512e-009 -8.55263e-013 8.55262e-013 -5.25911e-009 3.27702e-009 8.64626e-009
5.73992e-009 -3.65158e-009 -8.27598e-009 -5.6456e-009 -8.55262e-013 8.55262e-013 -1.26005e-009 1.78408e-009 6.11616e-009 1.54577e-009
-6.28816e-009 -9.01912e-009 -5.62066e-009 -8.55263e-013 4.27631e-013 2.16457e-009 3.86797e-009 3.68436e-009 9.34376e-010 -4.76337e-009
-8.73111e-009 -7.60888e-009 -4.27631e-013 4.27631e-013 7.89263e-009 1.41417e-008 1.64823e-008 1.389e-008 8.37363e-009 2.75079e-009
-1.74912e-010 -4.27631e-013 8.55263e-013 7.71328e-009 1.41032e-008 1.68983e-008 1.445e-008 8.85942e-009 3.32207e-009 -1.4561e-011
-8.55263e-013 8.55263e-013 6.93388e-009 1.37861e-008 1.76487e-008 1.55537e-008 9.94114e-009 3.92378e-009 6.12109e-010 -8.55263e-013
8.55263e-013 5.8684e-009 1.27185e-008 1.76858e-008 1.57605e-008 1.00226e-008 4.11009e-009 5.02435e-010 -8.55263e-013 8.55263e-013
4.28241e-009 1.08701e-008 1.60248e-008 1.42862e-008 8.21591e-009 2.48545e-009 -4.78768e-011 -8.55263e-013 8.55262e-013 2.68908e-009
8.06076e-009 1.23863e-008 1.04775e-008 4.87706e-009 -5.02814e-011 -1.56793e-009 -8.55263e-013 8.55262e-013 1.68895e-009 5.0611e-009
8.27587e-009 6.0663e-009 1.03511e-009 -2.62748e-009 -2.7628e-009 -8.55263e-013 8.55262e-013 1.4703e-009 4.02392e-009 5.33086e-009
3.03845e-009 -1.37821e-009 -4.11861e-009 -3.47596e-009 -8.55263e-013 4.27631e-013 1.6798e-009 3.63655e-009 4.69457e-009 2.06372e-009
-2.22944e-009 -4.60244e-009 -3.53107e-009 -4.27631e-013 4.27631e-013 6.79282e-009 1.21261e-008 1.44981e-008 1.33361e-008 9.70471e-009
5.48087e-009 2.13716e-009 -4.27631e-013 8.55263e-013 6.70924e-009 1.20709e-008 1.45381e-008 1.34777e-008 9.87108e-009 5.58022e-009
2.22828e-009 -8.55263e-013 8.55263e-013 6.4125e-009 1.17714e-008 1.44616e-008 1.36161e-008 1.00292e-008 5.74715e-009 2.28695e-009
-8.55263e-013 8.55263e-013 5.79223e-009 1.09794e-008 1.37868e-008 1.31167e-008 9.59149e-009 5.38342e-009 2.12858e-009 -8.55263e-013
8.55263e-013 4.89783e-009 9.50893e-009 1.21535e-008 1.14781e-008 8.10787e-009 4.25837e-009 1.49954e-009 -8.55263e-013 8.55263e-013
3.81436e-009 7.53118e-009 9.64567e-009 8.8368e-009 5.72696e-009 2.47191e-009 5.644e-010 -8.55263e-013 8.55263e-013 2.83267e-009
5.62836e-009 6.99215e-009 5.98976e-009 3.19781e-009 6.26581e-010 -3.97568e-010 -8.55263e-013 8.55263e-013 2.26114e-009 4.31721e-009
5.18039e-009 3.92239e-009 1.36819e-009 -6.76114e-010 -1.02801e-009 -8.55263e-013 4.27631e-013 2.05736e-009 3.92828e-009 4.52977e-009
3.19955e-009 7.18464e-010 -1.11346e-009 -1.24352e-009 -4.27631e-013 4.27631e-013 5.37949e-009 9.60568e-009 1.17197e-008 1.13845e-008
9.12282e-009 5.9693e-009 2.83604e-009 -4.27631e-013 8.55263e-013 5.32197e-009 9.52388e-009 1.1654e-008 1.13448e-008 9.10135e-009
5.96354e-009 2.82843e-009 -8.55263e-013 8.55263e-013 5.12104e-009 9.21916e-009 1.13598e-008 1.11051e-008 8.92508e-009 5.83407e-009
2.76703e-009 -8.55263e-013 8.55263e-013 4.72878e-009 8.57044e-009 1.06353e-008 1.04135e-008 8.33195e-009 5.39709e-009 2.53001e-009
-8.55263e-013 8.55263e-013 4.13063e-009 7.52999e-009 9.36168e-009 9.11252e-009 7.17215e-009 4.52497e-009 2.0662e-009 -8.55263e-013
8.55263e-013 3.41049e-009 6.21882e-009 7.68266e-009 7.33929e-009 5.56977e-009 3.32491e-009 1.42555e-009 -8.55263e-013 8.55263e-013
2.72764e-009 4.93745e-009 6.00649e-009 5.53086e-009 3.9288e-009 2.0998e-009 7.78049e-010 -8.55263e-013 8.55263e-013 2.24494e-009
4.03679e-009 4.78953e-009 4.21411e-009 2.72422e-009 1.20836e-009 3.08508e-010 -8.55263e-013 4.27631e-013 2.07919e-009 3.70985e-009
4.35688e-009 3.73549e-009 2.28948e-009 8.83425e-010 1.40661e-010 -4.27631e-013 4.27631e-013 4.06854e-009 7.30465e-009 9.0689e-009
9.12291e-009 7.71317e-009 5.3991e-009 2.72791e-009 -4.27631e-013 8.55263e-013 4.02097e-009 7.2246e-009 8.97668e-009 9.03529e-009
7.64043e-009 5.34616e-009 2.701e-009 -8.55263e-013 8.55263e-013 3.86749e-009 6.96112e-009 8.66403e-009 8.72914e-009 7.37718e-009
5.15514e-009 2.59904e-009 -8.55263e-013 8.55263e-013 3.58904e-009 6.47111e-009 8.06235e-009 8.11711e-009 6.83813e-009 4.75448e-009
2.38618e-009 -8.55263e-013 8.55263e-013 3.19061e-009 5.7535e-009 7.15815e-009 7.17245e-009 5.99034e-009 4.11921e-009 2.04626e-009
-8.55263e-013 8.55263e-013 2.72222e-009 4.8988e-009 6.06134e-009 6.00744e-009 4.93398e-009 3.32333e-009 1.6207e-009 -8.55263e-013
8.55263e-013 2.27749e-009 4.08132e-009 4.99896e-009 4.86913e-009 3.89476e-009 2.53907e-009 1.20115e-009 -8.55263e-013 8.55263e-013
1.96118e-009 3.49396e-009 4.23378e-009 4.04232e-009 3.1389e-009 1.96697e-009 8.95522e-010 -8.55263e-013 4.27631e-013 1.84622e-009
3.28228e-009 3.95513e-009 3.74192e-009 2.86275e-009 1.75883e-009 7.83854e-010 -4.27631e-013 4.27631e-013 3.00227e-009 5.42532e-009
6.8308e-009 7.03479e-009 6.14076e-009 4.45216e-009 2.3158e-009 -4.27631e-013 8.55263e-013 2.96524e-009 5.35919e-009 6.74854e-009
6.9503e-009 6.06611e-009 4.39702e-009 2.28637e-009 -8.55263e-013 8.55263e-013 2.85104e-009 5.15411e-009 6.49164e-009 6.68408e-009
5.82968e-009 4.2209e-009 2.19272e-009 -8.55263e-013 8.55263e-013 2.6565e-009 4.80236e-009 6.04605e-009 6.21735e-009 5.41084e-009
3.9073e-009 2.02515e-009 -8.55263e-013 8.55263e-013 2.39229e-009 4.32148e-009 5.43069e-009 5.56623e-009 4.82157e-009 3.46346e-009
1.78744e-009 -8.55263e-013 8.55263e-013 2.09298e-009 3.77372e-009 4.72454e-009 4.81335e-009 4.1358e-009 2.9449e-009 1.50905e-009
-8.55263e-013 8.55263e-013 1.81401e-009 3.26114e-009 4.06076e-009 4.10174e-009 3.48507e-009 2.45138e-009 1.24375e-009 -8.55263e-013
8.55263e-013 1.6156e-009 2.89643e-009 3.58657e-009 3.59232e-009 3.0177e-009 2.09652e-009 1.05279e-009 -8.55263e-013 4.27631e-013
1.54396e-009 2.76429e-009 3.41485e-009 3.40729e-009 2.84801e-009 1.96734e-009 9.83344e-010 -4.27631e-013 4.27631e-013 2.18504e-009
3.97148e-009 5.05438e-009 5.28909e-009 4.70918e-009 3.48381e-009 1.84024e-009 -4.27631e-013 8.55263e-013 2.15801e-009 3.92225e-009
4.99152e-009 5.22276e-009 4.64938e-009 3.43889e-009 1.81621e-009 -8.55263e-013 8.55263e-013 2.07699e-009 3.77454e-009 4.80239e-009
5.02276e-009 4.46853e-009 3.30288e-009 1.7433e-009 -8.55263e-013 8.55263e-013 1.94474e-009 3.53301e-009 4.49207e-009 4.69317e-009
4.16945e-009 3.07724e-009 1.62232e-009 -8.55263e-013 8.55263e-013 1.77254e-009 3.21767e-009 4.0854e-009 4.25942e-009 3.7743e-009
2.77825e-009 1.46171e-009 -8.55263e-013 8.55263e-013 1.58357e-009 2.87087e-009 3.63677e-009 3.77919e-009 3.33537e-009 2.44527e-009
1.28256e-009 -8.55263e-013 8.55263e-013 1.4109e-009 2.55355e-009 3.22528e-009 3.33763e-009 2.93075e-009 2.13774e-009 1.11689e-009
-8.55263e-013 8.55263e-013 1.28943e-009 2.33016e-009 2.93529e-009 3.02584e-009 2.64466e-009 1.91998e-009 9.99583e-010 -8.55263e-013
4.27631e-013 1.24565e-009 2.24968e-009 2.83068e-009 2.91333e-009 2.54129e-009 1.84129e-009 9.57162e-010 -4.27631e-013 4.27631e-013
1.57709e-009 2.87974e-009 3.69411e-009 3.90793e-009 3.52364e-009 2.63862e-009 1.40625e-009 -4.27631e-013 8.55263e-013 1.5584e-009
2.84542e-009 3.6498e-009 3.86064e-009 3.48055e-009 2.60602e-009 1.3887e-009 -8.55263e-013 8.55263e-013 1.50335e-009 2.74433e-009
3.5192e-009 3.72111e-009 3.35328e-009 2.50963e-009 1.33682e-009 -8.55263e-013 8.55263e-013 1.41595e-009 2.58392e-009 3.31167e-009
3.49904e-009 3.15042e-009 2.3558e-009 1.25408e-009 -8.55263e-013 8.55263e-013 1.30548e-009 2.38097e-009 3.04873e-009 3.21719e-009
2.89247e-009 2.15992e-009 1.14862e-009 -8.55263e-013 8.55263e-013 1.18729e-009 2.16364e-009 2.76676e-009 2.91444e-009 2.61495e-009
1.94889e-009 1.0349e-009 -8.55263e-013 8.55263e-013 1.08124e-009 1.96849e-009 2.51333e-009 2.64198e-009 2.36486e-009 1.75851e-009
9.32228e-010 -8.55263e-013 8.55263e-013 1.00741e-009 1.83271e-009 2.33686e-009 2.45211e-009 2.19041e-009 1.62563e-009 8.60599e-010
-8.55263e-013 4.27631e-013 9.80936e-010 1.78403e-009 2.27357e-009 2.38397e-009 2.1278e-009 1.5779e-009 8.34876e-010 -4.27631e-013
4.27631e-013 1.13211e-009 2.07432e-009 2.67604e-009 2.85196e-009 2.59264e-009 1.95622e-009 1.04816e-009 -4.27631e-013 8.55263e-013
1.11968e-009 2.0514e-009 2.64631e-009 2.82004e-009 2.5634e-009 1.93399e-009 1.03615e-009 -8.55263e-013 8.55263e-013 1.0835e-009
1.9847e-009 2.55971e-009 2.72704e-009 2.47815e-009 1.86916e-009 1.00114e-009 -8.55263e-013 8.55263e-013 1.02706e-009 1.88085e-009
2.42484e-009 2.5821e-009 2.3452e-009 1.768e-009 9.46614e-010 -8.55263e-013 8.55263e-013 9.57207e-010 1.75226e-009 2.25776e-009
2.40241e-009 2.18024e-009 1.64242e-009 8.7889e-010 -8.55263e-013 8.55263e-013 8.83879e-010 1.61722e-009 2.0822e-009 2.21347e-009
2.00666e-009 1.51019e-009 8.07545e-010 -8.55263e-013 8.55263e-013 8.19049e-010 1.4978e-009 1.92687e-009 2.04621e-009 1.85289e-009
1.39299e-009 7.4429e-010 -8.55263e-013 8.55263e-013 7.74319e-010 1.41552e-009 1.81983e-009 1.93089e-009 1.74683e-009 1.31213e-009
7.0071e-010 -8.55263e-013 4.27631e-013 7.58355e-010 1.38617e-009 1.78163e-009 1.88974e-009 1.70897e-009 1.28325e-009 6.8515e-010
-4.27631e-013 4.27631e-013 8.09509e-010 1.48685e-009 1.92576e-009 2.06267e-009 1.88521e-009 1.42931e-009 7.68366e-010 -4.27631e-013
8.55263e-013 8.01492e-010 1.47201e-009 1.90645e-009 2.04188e-009 1.8661e-009 1.41475e-009 7.6047e-010 -8.55263e-013 8.55263e-013
7.783e-010 1.42914e-009 1.85065e-009 1.98176e-009 1.81083e-009 1.3726e-009 7.37649e-010 -8.55263e-013 8.55263e-013 7.42532e-010
1.36322e-009 1.76484e-009 1.88931e-009 1.7258e-009 1.30777e-009 7.02652e-010 -8.55263e-013 8.55263e-013 6.98899e-010 1.28279e-009
1.66014e-009 1.77647e-009 1.622e-009 1.22861e-009 6.59912e-010 -8.55263e-013 8.55263e-013 6.53731e-010 1.19953e-009 1.55173e-009
1.6596e-009 1.51445e-009 1.14656e-009 6.15608e-010 -8.55263e-013 8.55263e-013 6.1425e-010 1.12674e-009 1.45695e-009 1.55739e-009
1.42037e-009 1.07479e-009 5.76845e-010 -8.55263e-013 8.55263e-013 5.87193e-010 1.07699e-009 1.39217e-009 1.48753e-009 1.35605e-009
1.02572e-009 5.50412e-010 -8.55263e-013 4.27631e-013 5.77574e-010 1.05932e-009 1.36915e-009 1.4627e-009 1.33319e-009 1.00827e-009
5.41021e-010 -4.27631e-013 4.27631e-013 5.77102e-010 1.06172e-009 1.37887e-009 1.48189e-009 1.35919e-009 1.0337e-009 5.5682e-010
-4.27631e-013 8.55263e-013 5.72043e-010 1.05232e-009 1.36662e-009 1.46867e-009 1.34702e-009 1.0244e-009 5.51764e-010 -8.55263e-013
8.55263e-013 5.57472e-010 1.02531e-009 1.33139e-009 1.43065e-009 1.312e-009 9.97653e-010 5.37236e-010 -8.55263e-013 8.55263e-013
5.35139e-010 9.8411e-010 1.27768e-009 1.37269e-009 1.2586e-009 9.56876e-010 5.15205e-010 -8.55263e-013 8.55263e-013 5.08168e-010
9.34354e-010 1.21283e-009 1.30269e-009 1.19412e-009 9.07642e-010 4.88602e-010 -8.55263e-013 8.55263e-013 4.80527e-010 8.83364e-010
1.14637e-009 1.23096e-009 1.12803e-009 8.57176e-010 4.61333e-010 -8.55263e-013 8.55263e-013 4.56571e-010 8.39168e-010 1.08878e-009
1.16879e-009 1.07075e-009 8.13449e-010 4.37703e-010 -8.55263e-013 8.55263e-013 4.40222e-010 8.09145e-010 1.04966e-009 1.12657e-009
1.03185e-009 7.83752e-010 4.2173e-010 -8.55263e-013 4.27631e-013 4.34425e-010 7.98518e-010 1.0358e-009 1.11161e-009 1.01806e-009
7.73225e-010 4.16077e-010 -4.27631e-013 4.27631e-013 4.10443e-010 7.55891e-010 9.83462e-010 1.05932e-009 9.73869e-010 7.4212e-010
4.0024e-010 -4.27631e-013 8.55263e-013 4.07307e-010 7.50037e-010 9.75827e-010 1.05107e-009 9.6626e-010 7.36307e-010 3.97061e-010
-8.55263e-013 8.55263e-013 3.98299e-010 7.33269e-010 9.53932e-010 1.02741e-009 9.44442e-010 7.19618e-010 3.87963e-010 -8.55263e-013
8.55263e-013 3.84523e-010 7.07843e-010 9.20747e-010 9.91556e-010 9.11374e-010 6.94337e-010 3.74296e-010 -8.55263e-013 8.55263e-013
3.68e-010 6.77343e-010 8.80961e-010 9.48573e-010 8.71737e-010 6.64048e-010 3.5792e-010 -8.55263e-013 8.55263e-013 3.51186e-010
6.46312e-010 8.40484e-010 9.04847e-010 8.3142e-010 6.33241e-010 3.41267e-010 -8.55263e-013 8.55263e-013 3.36702e-010 6.19579e-010
8.05631e-010 8.67201e-010 7.96711e-010 6.06733e-010 3.26936e-010 -8.55263e-013 8.55263e-013 3.26831e-010 6.015e-010 7.82071e-010
8.41753e-010 7.73248e-010 5.88821e-010 3.17329e-010 -8.55263e-013 4.27631e-013 3.23337e-010 5.95118e-010 7.73746e-010 8.32761e-010
7.64958e-010 5.82485e-010 3.1394e-010 -4.27631e-013 4.27631e-013 2.91382e-010 5.36922e-010 6.99386e-010 7.54443e-010 6.94631e-010
5.29992e-010 2.86017e-010 -4.27631e-013 8.55263e-013 2.89469e-010 5.33322e-010 6.94688e-010 7.49362e-010 6.89941e-010 5.26406e-010
2.84041e-010 -8.55263e-013 8.55263e-013 2.83978e-010 5.23042e-010 6.81247e-010 7.34826e-010 6.76523e-010 5.16129e-010 2.78407e-010
-8.55263e-013 8.55263e-013 2.75566e-010 5.07509e-010 6.60955e-010 7.12882e-010 6.56268e-010 5.00629e-010 2.70024e-010 -8.55263e-013
8.55263e-013 2.65521e-010 4.8896e-010 6.36745e-010 6.86708e-010 6.32115e-010 4.82162e-010 2.60035e-010 -8.55263e-013 8.55263e-013
2.5535e-010 4.70182e-010 6.12239e-010 6.60221e-010 6.07679e-010 4.63482e-010 2.49934e-010 -8.55263e-013 8.55263e-013 2.46624e-010
4.54072e-010 5.91234e-010 6.37523e-010 5.86743e-010 4.47491e-010 2.41287e-010 -8.55263e-013 8.55263e-013 2.40665e-010 4.43211e-010
5.77082e-010 6.22232e-010 5.72641e-010 4.36728e-010 2.35543e-010 -8.55263e-013 4.27631e-013 2.38557e-010 4.39387e-010 5.72091e-010
6.16839e-010 5.67667e-010 4.32925e-010 2.33523e-010 -4.27631e-013 4.27631e-013 2.06612e-010 3.80781e-010 4.96348e-010 5.35921e-010
4.93901e-010 3.77116e-010 2.03555e-010 -4.27631e-013 8.55263e-013 2.05463e-010 3.78591e-010 4.93488e-010 5.32825e-010 4.91041e-010
3.74929e-010 2.02336e-010 -8.55263e-013 8.55263e-013 2.02161e-010 3.72351e-010 4.85317e-010 5.23982e-010 4.82872e-010 3.68662e-010
1.98869e-010 -8.55263e-013 8.55263e-013 1.97068e-010 3.62943e-010 4.73014e-010 5.10668e-010 4.70575e-010 3.59241e-010 1.93772e-010
-8.55263e-013 8.55263e-013 1.91002e-010 3.51739e-010 4.58384e-010 4.94843e-010 4.55963e-010 3.48065e-010 1.87725e-010 -8.55263e-013
8.55263e-013 1.8488e-010 3.40435e-010 4.43627e-010 4.78888e-010 4.41239e-010 3.36805e-010 1.81636e-010 -8.55263e-013 8.55263e-013
1.79641e-010 3.30761e-010 4.31017e-010 4.6526e-010 4.28667e-010 3.27206e-010 1.76444e-010 -8.55263e-013 8.55263e-013 1.76039e-010
3.24251e-010 4.22542e-010 4.56101e-010 4.2022e-010 3.20764e-010 1.73037e-010 -8.55263e-013 4.27631e-013 1.74765e-010 3.21964e-010
4.19557e-010 4.52876e-010 4.17245e-010 3.18489e-010 1.71842e-010 -4.27631e-013 4.27631e-013 1.46449e-010 2.6985e-010 3.51871e-010
3.80132e-010 3.5052e-010 2.67735e-010 1.44489e-010 -4.27631e-013 8.55263e-013 1.4577e-010 2.68528e-010 3.50145e-010 3.78262e-010
3.48791e-010 2.66412e-010 1.43736e-010 -8.55263e-013 8.55263e-013 1.43814e-010 2.64774e-010 3.45217e-010 3.72924e-010 3.43856e-010
2.62618e-010 1.41607e-010 -8.55263e-013 8.55263e-013 1.40753e-010 2.59118e-010 3.37811e-010 3.64904e-010 3.36442e-010 2.56931e-010
1.38529e-010 -8.55263e-013 8.55263e-013 1.37112e-010 2.5239e-010 3.29022e-010 3.55393e-010 3.27657e-010 2.50209e-010 1.34891e-010
-8.55263e-013 8.55263e-013 1.33443e-010 2.45615e-010 3.20177e-010 3.45829e-010 3.1883e-010 2.43457e-010 1.3124e-010 -8.55263e-013
8.55263e-013 1.30307e-010 2.39824e-010 3.12635e-010 3.37678e-010 3.11312e-010 2.37722e-010 1.28138e-010 -8.55263e-013 8.55263e-013
1.28122e-010 2.3593e-010 3.07574e-010 3.32211e-010 3.0627e-010 2.33884e-010 1.26138e-010 -8.55263e-013 4.27631e-013 1.27347e-010
2.34566e-010 3.05793e-010 3.30287e-010 3.04496e-010 2.32527e-010 1.2544e-010 -4.27631e-013 4.27631e-013 1.03877e-010 1.91298e-010
2.49457e-010 2.6956e-010 2.48624e-010 1.89916e-010 1.02434e-010 -4.27631e-013 8.55263e-013 1.03485e-010 1.90506e-010 2.48422e-010
2.68437e-010 2.47585e-010 1.89121e-010 1.01967e-010 -8.55263e-013 8.55263e-013 1.02348e-010 1.88264e-010 2.4547e-010 2.65236e-010
2.44622e-010 1.86834e-010 1.00654e-010 -8.55263e-013 8.55263e-013 1.0052e-010 1.84886e-010 2.41037e-010 2.60431e-010 2.40177e-010
1.83418e-010 9.88041e-011 -8.55263e-013 8.55263e-013 9.83452e-011 1.80866e-010 2.35783e-010 2.54743e-010 2.3492e-010 1.79394e-010
9.66258e-011 -8.55263e-013 8.55263e-013 9.61544e-011 1.76821e-010 2.30502e-010 2.49033e-010 2.2965e-010 1.75364e-010 9.44464e-011
-8.55263e-013 8.55263e-013 9.4281e-011 1.73362e-010 2.26005e-010 2.44175e-010 2.25172e-010 1.71953e-010 9.26018e-011 -8.55263e-013
8.55263e-013 9.29446e-011 1.71035e-010 2.2299e-010 2.40921e-010 2.22173e-010 1.69677e-010 9.14472e-011 -8.55263e-013 4.27631e-013
9.24686e-011 1.70223e-010 2.2193e-010 2.39776e-010 2.21118e-010 1.68871e-010 9.10472e-011 -4.27631e-013 4.27631e-013 7.38199e-011
1.35813e-010 1.77065e-010 1.91335e-010 1.76476e-010 1.34775e-010 7.2621e-011 -4.27631e-013 8.55263e-013 7.36007e-011 1.3534e-010
1.76447e-010 1.90664e-010 1.75854e-010 1.34299e-010 7.23269e-011 -8.55263e-013 8.55263e-013 7.29584e-011 1.34012e-010 1.74687e-010
1.88752e-010 1.74081e-010 1.32924e-010 7.15059e-011 -8.55263e-013 8.55263e-013 7.18732e-011 1.32005e-010 1.72046e-010 1.85885e-010
1.71425e-010 1.30876e-010 7.03969e-011 -8.55263e-013 8.55263e-013 7.05789e-011 1.29612e-010 1.68917e-010 1.82495e-010 1.68291e-010
1.28476e-010 6.90968e-011 -8.55263e-013 8.55263e-013 6.92738e-011 1.27203e-010 1.65772e-010 1.79097e-010 1.65155e-010 1.26078e-010
6.78006e-011 -8.55263e-013 8.55263e-013 6.81552e-011 1.25138e-010 1.63095e-010 1.76208e-010 1.62495e-010 1.24058e-010 6.67086e-011