<VTKFile type="UnstructuredGrid" version="1.0">
<UnstructuredGrid>
<FieldData>
<DataArray type="Float64" Name="TIME" NumberOfTuples="1" format="ascii" RangeMin="0" RangeMax="0">
0
</DataArray>
</FieldData>
<Piece NumberOfPoints="2025" NumberOfCells="1536">
<Points>
<DataArray type="Float64" NumberOfComponents="3" format="ascii">
500 500 1500 437.5 500 1500 375 500 1500 312.5
500 1500 250 500 1500 187.5 500 1500 125 500
1500 62.5 500 1500 0 500 1500 500 437.5 1500
437.5 437.5 1500 375 437.5 1500 312.5 437.5 1500 250
437.5 1500 187.5 437.5 1500 125 437.5 1500 62.5 437.5
1500 0 437.5 1500 500 375 1500 437.5 375 1500
375 375 1500 312.5 375 1500 250 375 1500 187.5
375 1500 125 375 1500 62.5 375 1500 0 375
1500 500 312.5 1500 437.5 312.5 1500 375 312.5 1500
312.5 312.5 1500 250 312.5 1500 187.5 312.5 1500 125
312.5 1500 62.5 312.5 1500 0 312.5 1500 500 250
1500 437.5 250 1500 375 250 1500 312.5 250 1500
250 250 1500 187.5 250 1500 125 250 1500 62.5
250 1500 0 250 1500 500 187.5 1500 437.5 187.5
1500 375 187.5 1500 312.5 187.5 1500 250 187.5 1500
187.5 187.5 1500 125 187.5 1500 62.5 187.5 1500 0
187.5 1500 500 125 1500 437.5 125 1500 375 125
1500 312.5 125 1500 250 125 1500 187.5 125 1500
125 125 1500 62.5 125 1500 0 125 1500 500
62.5 1500 437.5 62.5 1500 375 62.5 1500 312.5 62.5
1500 250 62.5 1500 187.5 62.5 1500 125 62.5 1500
62.5 62.5 1500 0 62.5 1500 500 0 1500 437.5
0 1500 375 0 1500 312.5 0 1500 250 0
1500 187.5 0 1500 125 0 1500 62.5 0 1500
0 0 1500 500 500 1437.5 437.5 500 1437.5 375
500 1437.5 312.5 500 1437.5 250 500 1437.5 187.5 500
1437.5 125 500 1437.5 62.5 500 1437.5 0 500 1437.5
500 437.5 1437.5 437.5 437.5 1437.5 375 437.5 1437.5 312.5
437.5 1437.5 250 437.5 1437.5 187.5 437.5 1437.5 125 437.5
1437.5 62.5 437.5 1437.5 0 437.5 1437.5 500 375 1437.5
437.5 375 1437.5 375 375 1437.5 312.5 375 1437.5 250
375 1437.5 187.5 375 1437.5 125 375 1437.5 62.5 375
1437.5 0 375 1437.5 500 312.5 1437.5 437.5 312.5 1437.5
375 312.5 1437.5 312.5 312.5 1437.5 250 312.5 1437.5 187.5
312.5 1437.5 125 312.5 1437.5 62.5 312.5 1437.5 0 312.5
1437.5 500 250 1437.5 437.5 250 1437.5 375 250 1437.5
312.5 250 1437.5 250 250 1437.5 187.5 250 1437.5 125
250 1437.5 62.5 250 1437.5 0 250 1437.5 500 187.5
1437.5 437.5 187.5 1437.5 375 187.5 1437.5 312.5 187.5 1437.5
250 187.5 1437.5 187.5 187.5 1437.5 125 187.5 1437.5 62.5
187.5 1437.5 0 187.5 1437.5 500 125 1437.5 437.5 125
1437.5 375 125 1437.5 312.5 125 1437.5 250 125 1437.5
187.5 125 1437.5 125 125 1437.5 62.5 125 1437.5 0
125 1437.5 500 62.5 1437.5 437.5 62.5 1437.5 375 62.5
1437.5 312.5 62.5 1437.5 250 62.5 1437.5 187.5 62.5 1437.5
125 62.5 1437.5 62.5 62.5 1437.5 0 62.5 1437.5 500
0 1437.5 437.5 0 1437.5 375 0 1437.5 312.5 0
1437.5 250 0 1437.5 187.5 0 1437.5 125 0 1437.5
62.5 0 1437.5 0 0 1437.5 500 500 1375 437.5
500 1375 375 500 1375 312.5 500 1375 250 500
1375 187.5 500 1375 125 500 1375 62.5 500 1375
0 500 1375 500 437.5 1375 437.5 437.5 1375 375
437.5 1375 312.5 437.5 1375 250 437.5 1375 187.5 437.5
1375 125 437.5 1375 62.5 437.5 1375 0 437.5 1375
500 375 1375 437.5 375 1375 375 375 1375 312.5
375 1375 250 375 1375 187.5 375 1375 125 375
1375 62.5 375 1375 0 375 1375 500 312.5 1375
437.5 312.5 1375 375 312.5 1375 312.5 312.5 1375 250
312.5 1375 187.5 312.5 1375 125 312.5 1375 62.5 312.5
1375 0 312.5 1375 500 250 1375 437.5 250 1375
375 250 1375 312.5 250 1375 250 250 1375 187.5
250 1375 125 250 1375 62.5 250 1375 0 250
1375 500 187.5 1375 437.5 187.5 1375 375 187.5 1375
312.5 187.5 1375 250 187.5 1375 187.5 187.5 1375 125
187.5 1375 62.5 187.5 1375 0 187.5 1375 500 125
1375 437.5 125 1375 375 125 1375 312.5 125 1375
250 125 1375 187.5 125 1375 125 125 1375 62.5
125 1375 0 125 1375 500 62.5 1375 437.5 62.5
1375 375 62.5 1375 312.5 62.5 1375 250 62.5 1375
187.5 62.5 1375 125 62.5 1375 62.5 62.5 1375 0
62.5 1375 500 0 1375 437.5 0 1375 375 0
1375 312.5 0 1375 250 0 1375 187.5 0 1375
125 0 1375 62.5 0 1375 0 0 1375 500
500 1312.5 437.5 500 1312.5 375 500 1312.5 312.5 500
1312.5 250 500 1312.5 187.5 500 1312.5 125 500 1312.5
62.5 500 1312.5 0 500 1312.5 500 437.5 1312.5 437.5
437.5 1312.5 375 437.5 1312.5 312.5 437.5 1312.5 250 437.5
1312.5 187.5 437.5 1312.5 125 437.5 1312.5 62.5 437.5 1312.5
0 437.5 1312.5 500 375 1312.5 437.5 375 1312.5 375
375 1312.5 312.5 375 1312.5 250 375 1312.5 187.5 375
1312.5 125 375 1312.5 62.5 375 1312.5 0 375 1312.5
500 312.5 1312.5 437.5 312.5 1312.5 375 312.5 1312.5 312.5
312.5 1312.5 250 312.5 1312.5 187.5 312.5 1312.5 125 312.5
1312.5 62.5 312.5 1312.5 0 312.5 1312.5 500 250 1312.5
437.5 250 1312.5 375 250 1312.5 312.5 250 1312.5 250
250 1312.5 187.5 250 1312.5 125 250 1312.5 62.5 250
1312.5 0 250 1312.5 500 187.5 1312.5 437.5 187.5 1312.5
375 187.5 1312.5 312.5 187.5 1312.5 250 187.5 1312.5 187.5
187.5 1312.5 125 187.5 1312.5 62.5 187.5 1312.5 0 187.5
1312.5 500 125 1312.5 437.5 125 1312.5 375 125 1312.5
312.5 125 1312.5 250 125 1312.5 187.5 125 1312.5 125
125 1312.5 62.5 125 1312.5 0 125 1312.5 500 62.5
1312.5 437.5 62.5 1312.5 375 62.5 1312.5 312.5 62.5 1312.5
250 62.5 1312.5 187.5 62.5 1312.5 125 62.5 1312.5 62.5
62.5 1312.5 0 62.5 1312.5 500 0 1312.5 437.5 0
1312.5 375 0 1312.5 312.5 0 1312.5 250 0 1312.5
187.5 0 1312.5 125 0 1312.5 62.5 0 1312.5 0
0 1312.5 500 500 1250 437.5 500 1250 375 500
1250 312.5 500 1250 250 500 1250 187.5 500 1250
125 500 1250 62.5 500 1250 0 500 1250 500
437.5 1250 437.5 437.5 1250 375 437.5 1250 312.5 437.5
1250 250 437.5 1250 187.5 437.5 1250 125 437.5 1250
62.5 437.5 1250 0 437.5 1250 500 375 1250 437.5
375 1250 375 375 1250 312.5 375 1250 250 375
1250 187.5 375 1250 125 375 1250 62.5 375 1250
0 375 1250 500 312.5 1250 437.5 312.5 1250 375
312.5 1250 312.5 312.5 1250 250 312.5 1250 187.5 312.5
1250 125 312.5 1250 62.5 312.5 1250 0 312.5 1250
500 250 1250 437.5 250 1250 375 250 1250 312.5
250 1250 250 250 1250 187.5 250 1250 125 250
1250 62.5 250 1250 0 250 1250 500 187.5 1250
437.5 187.5 1250 375 187.5 1250 312.5 187.5 1250 250
187.5 1250 187.5 187.5 1250 125 187.5 1250 62.5 187.5
1250 0 187.5 1250 500 125 1250 437.5 125 1250
375 125 1250 312.5 125 1250 250 125 1250 187.5
125 1250 125 125 1250 62.5 125 1250 0 125
1250 500 62.5 1250 437.5 62.5 1250 375 62.5 1250
312.5 62.5 1250 250 62.5 1250 187.5 62.5 1250 125
62.5 1250 62.5 62.5 1250 0 62.5 1250 500 0
1250 437.5 0 1250 375 0 1250 312.5 0 1250
250 0 1250 187.5 0 1250 125 0 1250 62.5
0 1250 0 0 1250 500 500 1187.5 437.5 500
1187.5 375 500 1187.5 312.5 500 1187.5 250 500 1187.5
187.5 500 1187.5 125 500 1187.5 62.5 500 1187.5 0
500 1187.5 500 437.5 1187.5 437.5 437.5 1187.5 375 437.5
1187.5 312.5 437.5 1187.5 250 437.5 1187.5 187.5 437.5 1187.5
125 437.5 1187.5 62.5 437.5 1187.5 0 437.5 1187.5 500
375 1187.5 437.5 375 1187.5 375 375 1187.5 312.5 375
1187.5 250 375 1187.5 187.5 375 1187.5 125 375 1187.5
62.5 375 1187.5 0 375 1187.5 500 312.5 1187.5 437.5
312.5 1187.5 375 312.5 1187.5 312.5 312.5 1187.5 250 312.5
1187.5 187.5 312.5 1187.5 125 312.5 1187.5 62.5 312.5 1187.5
0 312.5 1187.5 500 250 1187.5 437.5 250 1187.5 375
250 1187.5 312.5 250 1187.5 250 250 1187.5 187.5 250
1187.5 125 250 1187.5 62.5 250 1187.5 0 250 1187.5
500 187.5 1187.5 437.5 187.5 1187.5 375 187.5 1187.5 312.5
187.5 1187.5 250 187.5 1187.5 187.5 187.5 1187.5 125 187.5
1187.5 62.5 187.5 1187.5 0 187.5 1187.5 500 125 1187.5
437.5 125 1187.5 375 125 1187.5 312.5 125 1187.5 250
125 1187.5 187.5 125 1187.5 125 125 1187.5 62.5 125
1187.5 0 125 1187.5 500 62.5 1187.5 437.5 62.5 1187.5
375 62.5 1187.5 312.5 62.5 1187.5 250 62.5 1187.5 187.5
62.5 1187.5 125 62.5 1187.5 62.5 62.5 1187.5 0 62.5
1187.5 500 0 1187.5 437.5 0 1187.5 375 0 1187.5
312.5 0 1187.5 250 0 1187.5 187.5 0 1187.5 125
0 1187.5 62.5 0 1187.5 0 0 1187.5 500 500
1125 437.5 500 1125 375 500 1125 312.5 500 1125
250 500 1125 187.5 500 1125 125 500 1125 62.5
500 1125 0 500 1125 500 437.5 1125 437.5 437.5
1125 375 437.5 1125 312.5 437.5 1125 250 437.5 1125
187.5 437.5 1125 125 437.5 1125 62.5 437.5 1125 0
437.5 1125 500 375 1125 437.5 375 1125 375 375
1125 312.5 375 1125 250 375 1125 187.5 375 1125
125 375 1125 62.5 375 1125 0 375 1125 500
312.5 1125 437.5 312.5 1125 375 312.5 1125 312.5 312.5
1125 250 312.5 1125 187.5 312.5 1125 125 312.5 1125
62.5 312.5 1125 0 312.5 1125 500 250 1125 437.5
250 1125 375 250 1125 312.5 250 1125 250 250
1125 187.5 250 1125 125 250 1125 62.5 250 1125
0 250 1125 500 187.5 1125 437.5 187.5 1125 375
187.5 1125 312.5 187.5 1125 250 187.5 1125 187.5 187.5
1125 125 187.5 1125 62.5 187.5 1125 0 187.5 1125
500 125 1125 437.5 125 1125 375 125 1125 312.5
125 1125 250 125 1125 187.5 125 1125 125 125
1125 62.5 125 1125 0 125 1125 500 62.5 1125
437.5 62.5 1125 375 62.5 1125 312.5 62.5 1125 250
62.5 1125 187.5 62.5 1125 125 62.5 1125 62.5 62.5
1125 0 62.5 1125 500 0 1125 437.5 0 1125
375 0 1125 312.5 0 1125 250 0 1125 187.5
0 1125 125 0 1125 62.5 0 1125 0 0
1125 500 500 1062.5 437.5 500 1062.5 375 500 1062.5
312.5 500 1062.5 250 500 1062.5 187.5 500 1062.5 125
500 1062.5 62.5 500 1062.5 0 500 1062.5 500 437.5
1062.5 437.5 437.5 1062.5 375 437.5 1062.5 312.5 437.5 1062.5
250 437.5 1062.5 187.5 437.5 1062.5 125 437.5 1062.5 62.5
437.5 1062.5 0 437.5 1062.5 500 375 1062.5 437.5 375
1062.5 375 375 1062.5 312.5 375 1062.5 250 375 1062.5
187.5 375 1062.5 125 375 1062.5 62.5 375 1062.5 0
375 1062.5 500 312.5 1062.5 437.5 312.5 1062.5 375 312.5
1062.5 312.5 312.5 1062.5 250 312.5 1062.5 187.5 312.5 1062.5
125 312.5 1062.5 62.5 312.5 1062.5 0 312.5 1062.5 500
250 1062.5 437.5 250 1062.5 375 250 1062.5 312.5 250
1062.5 250 250 1062.5 187.5 250 1062.5 125 250 1062.5
62.5 250 1062.5 0 250 1062.5 500 187.5 1062.5 437.5
187.5 1062.5 375 187.5 1062.5 312.5 187.5 1062.5 250 187.5
1062.5 187.5 187.5 1062.5 125 187.5 1062.5 62.5 187.5 1062.5
0 187.5 1062.5 500 125 1062.5 437.5 125 1062.5 375
125 1062.5 312.5 125 1062.5 250 125 1062.5 187.5 125
1062.5 125 125 1062.5 62.5 125 1062.5 0 125 1062.5
500 62.5 1062.5 437.5 62.5 1062.5 375 62.5 1062.5 312.5
62.5 1062.5 250 62.5 1062.5 187.5 62.5 1062.5 125 62.5
[...]
<PointData>
<DataArray type="Float64" Name="ux" NumberOfComponents="1" format="ascii">
2.59845e-013 -1.66737e-008 -2.20495e-008 -2.31094e-008 -2.08133e-008 -1.26699e-008 -2.10157e-009 5.04071e-009 -2.59845e-013 5.1969e-013
-1.29599e-008 -2.19259e-008 -2.71757e-008 -2.2843e-008 -1.33e-008 -2.4593e-009 5.11613e-009 -5.1969e-013 5.1969e-013 -3.25382e-009
-2.16247e-008 -3.56699e-008 -2.29755e-008 -1.41869e-008 -6.8218e-009 4.64243e-009 -5.1969e-013 5.1969e-013 2.70313e-009 -2.05538e-008
-3.91943e-008 -2.07068e-008 -1.44148e-008 -1.1074e-008 4.86246e-009 -5.1969e-013 5.1969e-013 5.44769e-009 -1.72293e-008 -3.74478e-008
-2.33547e-008 -1.20037e-008 -4.44651e-009 5.72538e-009 -5.1969e-013 5.1969e-013 8.96381e-009 -9.56686e-009 -3.29754e-008 -2.09304e-008
-3.54745e-009 2.86594e-009 4.74026e-009 -5.1969e-013 5.1969e-013 6.6371e-009 -2.15276e-009 -2.35317e-008 -1.31626e-008 5.70908e-009
5.96247e-009 2.56132e-009 -5.1969e-013 5.1969e-013 -2.04665e-009 -4.71012e-009 -1.19018e-008 -6.76276e-009 3.89269e-009 7.24898e-009
6.76842e-009 -5.1969e-013 2.59845e-013 -5.56468e-009 -8.02692e-009 -8.17701e-009 -4.6937e-009 1.14828e-009 7.4015e-009 9.43201e-009
-2.59845e-013 5.1969e-013 6.78361e-009 3.506e-009 2.23979e-009 -6.56159e-010 -3.13991e-009 -7.17633e-009 -1.10388e-008 -5.19691e-013
1.03938e-012 9.6363e-009 3.32466e-009 4.37956e-009 1.23748e-009 -2.76849e-009 -5.69449e-009 -1.57319e-008 -1.03938e-012 1.03938e-012
-1.61117e-008 3.83848e-009 2.875e-008 3.18092e-009 -1.55635e-009 -4.38473e-009 -1.33996e-008 -1.03938e-012 1.03938e-012 -1.90143e-008
3.74006e-009 3.22581e-008 -1.64533e-008 -7.10298e-010 1.9295e-008 -1.81242e-008 -1.03938e-012 1.03938e-012 -2.05686e-008 2.22858e-009
3.3047e-008 6.78516e-009 -1.72526e-009 -4.27131e-009 -1.27638e-008 -1.03938e-012 1.03938e-012 -2.26653e-008 -2.50141e-010 3.10264e-008
4.91428e-009 -4.50512e-009 -6.61769e-009 -1.40202e-008 -1.03938e-012 1.03938e-012 -2.04582e-008 -2.41439e-008 2.72652e-008 1.82338e-009
-2.89219e-008 -8.22036e-009 4.57203e-009 -1.03938e-012 1.03938e-012 4.8161e-009 -1.22003e-009 7.10664e-010 -1.31173e-009 -6.47216e-009
-7.84182e-009 -1.37606e-008 -1.03938e-012 5.1969e-013 -3.37533e-011 -5.74399e-010 5.73232e-009 -1.83706e-009 -5.98915e-009 -7.37338e-009
-9.70707e-009 -5.1969e-013 5.19691e-013 8.90261e-009 1.33553e-008 1.35806e-008 1.00757e-008 3.87139e-009 -2.75493e-009 -5.38519e-009
-5.19691e-013 1.03938e-012 6.2566e-009 1.37724e-008 1.64689e-008 1.20047e-008 4.82402e-009 -2.84297e-009 -4.77769e-009 -1.03938e-012
1.03938e-012 3.58033e-009 1.35431e-008 1.92114e-008 1.48294e-008 6.38336e-009 3.69429e-010 -4.07093e-009 -1.03938e-012 1.03938e-012
-7.78262e-011 1.2727e-008 2.00343e-008 1.7086e-008 7.15707e-009 1.23391e-010 -1.30646e-009 -1.03938e-012 1.03938e-012 -1.84709e-009
1.07685e-008 2.09345e-008 1.58907e-008 5.7168e-009 -6.93757e-010 -4.4466e-009 -1.03938e-012 1.03938e-012 -4.54167e-009 5.45814e-009
1.73245e-008 1.33941e-008 -1.23166e-010 -5.72647e-009 -4.46108e-009 -1.03938e-012 1.03938e-012 -5.38311e-009 3.04781e-009 8.34684e-009
5.41595e-009 -3.95078e-009 -8.50493e-009 -5.76956e-009 -1.03938e-012 1.03938e-012 -1.38273e-009 1.55733e-009 5.81996e-009 1.22528e-009
-6.58414e-009 -9.2456e-009 -5.74327e-009 -1.03938e-012 5.1969e-013 2.04236e-009 3.64208e-009 3.38929e-009 6.15113e-010 -5.05822e-009
-8.95673e-009 -7.73101e-009 -5.1969e-013 5.19691e-013 7.74417e-009 1.38674e-008 1.61241e-008 1.35026e-008 8.01602e-009 2.47725e-009
-3.22939e-010 -5.19691e-013 1.03938e-012 7.56552e-009 1.38302e-008 1.65418e-008 1.40644e-008 8.50347e-009 3.0498e-009 -1.61909e-010
-1.03938e-012 1.03938e-012 6.7881e-009 1.35167e-008 1.72969e-008 1.51733e-008 9.58993e-009 3.65512e-009 4.667e-010 -1.03938e-012
1.03938e-012 5.72556e-009 1.24546e-008 1.73411e-008 1.53877e-008 9.67845e-009 3.84687e-009 3.59963e-010 -1.03938e-012 1.03938e-012
4.14306e-009 1.06126e-008 1.56886e-008 1.39225e-008 7.88019e-009 2.22864e-009 -1.86873e-010 -1.03938e-012 1.03938e-012 2.55323e-009
7.80971e-009 1.20584e-008 1.01229e-008 4.54977e-009 -3.00635e-010 -1.70344e-009 -1.03938e-012 1.03938e-012 1.55607e-009 4.81554e-009
7.95522e-009 5.71951e-009 7.14985e-010 -2.87235e-009 -2.89533e-009 -1.03938e-012 1.03938e-012 1.33939e-009 3.78203e-009 5.01501e-009
2.69687e-009 -1.69353e-009 -4.35979e-009 -3.60649e-009 -1.03938e-012 5.1969e-013 1.54959e-009 3.39596e-009 4.38041e-009 1.72397e-009
-2.54307e-009 -4.84233e-009 -3.66089e-009 -5.1969e-013 5.1969e-013 6.61213e-009 1.17923e-008 1.40626e-008 1.28653e-008 9.27034e-009
5.14879e-009 1.95753e-009 -5.1969e-013 1.03938e-012 6.5296e-009 1.17391e-008 1.41051e-008 1.30097e-008 9.43923e-009 5.25006e-009
2.04968e-009 -1.03938e-012 1.03938e-012 6.23586e-009 1.14451e-008 1.40357e-008 1.31558e-008 9.60451e-009 5.42247e-009 2.1113e-009
-1.03938e-012 1.03938e-012 5.62006e-009 1.06614e-008 1.33718e-008 1.26681e-008 9.17759e-009 5.06699e-009 1.95739e-009 -1.03938e-012
1.03938e-012 4.73097e-009 9.20071e-009 1.17512e-008 1.10433e-008 7.70674e-009 3.95171e-009 1.33363e-009 -1.03938e-012 1.03938e-012
3.65282e-009 7.2328e-009 9.25625e-009 8.41591e-009 5.33867e-009 2.17506e-009 4.03801e-010 -1.03938e-012 1.03938e-012 2.67567e-009
5.33835e-009 6.61368e-009 5.5807e-009 2.82044e-009 3.38095e-010 -5.53643e-010 -1.03938e-012 1.03938e-012 2.10716e-009 4.03282e-009
4.80925e-009 3.52127e-009 9.98153e-010 -9.58991e-010 -1.18104e-009 -1.03938e-012 5.1969e-013 1.90444e-009 3.64586e-009 4.16121e-009
2.80122e-009 3.51005e-010 -1.39437e-009 -1.39547e-009 -5.1969e-013 5.1969e-013 5.1597e-009 9.19995e-009 1.11905e-008 1.0813e-008
8.59595e-009 5.56677e-009 2.61841e-009 -5.1969e-013 1.03938e-012 5.1037e-009 9.12095e-009 1.11285e-008 1.07772e-008 8.57813e-009
5.5638e-009 2.6123e-009 -1.03938e-012 1.03938e-012 4.90713e-009 8.82424e-009 1.08448e-008 1.05488e-008 8.41229e-009 5.4423e-009
2.5552e-009 -1.03938e-012 1.03938e-012 4.52138e-009 8.18756e-009 1.01359e-008 9.87418e-009 7.83483e-009 5.01732e-009 2.32466e-009
-1.03938e-012 1.03938e-012 3.93097e-009 7.16139e-009 8.88099e-009 8.59341e-009 6.69365e-009 4.15943e-009 1.86855e-009 -1.03938e-012
1.03938e-012 3.21861e-009 5.86461e-009 7.22073e-009 6.84047e-009 5.11001e-009 2.97371e-009 1.23565e-009 -1.03938e-012 1.03938e-012
2.5424e-009 4.5955e-009 5.56057e-009 5.04937e-009 3.48503e-009 1.76083e-009 5.9477e-010 -1.03938e-012 1.03938e-012 2.06415e-009
3.70306e-009 4.35437e-009 3.74424e-009 2.29118e-009 8.77592e-010 1.29688e-010 -1.03938e-012 5.1969e-013 1.89995e-009 3.37902e-009
3.9255e-009 3.26971e-009 1.86022e-009 5.55549e-010 -3.65883e-011 -5.1969e-013 5.1969e-013 3.81637e-009 6.83949e-009 8.46287e-009
8.46921e-009 7.11132e-009 4.93981e-009 2.47978e-009 -5.1969e-013 1.03938e-012 3.77087e-009 6.76326e-009 8.37563e-009 8.38698e-009
7.04355e-009 4.89067e-009 2.45492e-009 -1.03938e-012 1.03938e-012 3.62332e-009 6.5107e-009 8.07723e-009 8.09623e-009 6.79451e-009
4.7105e-009 2.35881e-009 -1.03938e-012 1.03938e-012 3.35379e-009 6.03714e-009 7.49702e-009 7.5074e-009 6.27686e-009 4.3262e-009
2.1548e-009 -1.03938e-012 1.03938e-012 2.96596e-009 5.3391e-009 6.61836e-009 6.59035e-009 5.45454e-009 3.7104e-009 1.82541e-009
-1.03938e-012 1.03938e-012 2.50827e-009 4.50417e-009 5.54734e-009 5.45321e-009 4.42391e-009 2.93419e-009 1.41048e-009 -1.03938e-012
1.03938e-012 2.07268e-009 3.70357e-009 4.50701e-009 4.33874e-009 3.40668e-009 2.16675e-009 1.00003e-009 -1.03938e-012 1.03938e-012
1.7625e-009 3.12757e-009 3.75666e-009 3.52796e-009 2.66562e-009 1.60596e-009 7.00539e-010 -1.03938e-012 5.1969e-013 1.6497e-009
2.91989e-009 3.48323e-009 3.23321e-009 2.39468e-009 1.40181e-009 5.91034e-010 -5.1969e-013 5.1969e-013 2.74609e-009 4.95337e-009
6.21712e-009 6.37437e-009 5.53415e-009 3.99017e-009 2.06656e-009 -5.1969e-013 1.03938e-012 2.71162e-009 4.89197e-009 6.14103e-009
6.29654e-009 5.46565e-009 3.93972e-009 2.03966e-009 -1.03938e-012 1.03938e-012 2.60478e-009 4.70043e-009 5.90178e-009 6.04938e-009
5.24679e-009 3.77703e-009 1.95325e-009 -1.03938e-012 1.03938e-012 2.42133e-009 4.36914e-009 5.48288e-009 5.61148e-009 4.85452e-009
3.48373e-009 1.79665e-009 -1.03938e-012 1.03938e-012 2.17036e-009 3.9127e-009 4.8994e-009 4.99479e-009 4.29701e-009 3.06415e-009
1.57206e-009 -1.03938e-012 1.03938e-012 1.88447e-009 3.38972e-009 4.22557e-009 4.27682e-009 3.64342e-009 2.57019e-009 1.30696e-009
-1.03938e-012 1.03938e-012 1.61702e-009 2.8984e-009 3.58952e-009 3.59519e-009 3.02034e-009 2.09778e-009 1.05308e-009 -1.03938e-012
1.03938e-012 1.42636e-009 2.54803e-009 3.13403e-009 3.10597e-009 2.5716e-009 1.75717e-009 8.69843e-010 -1.03938e-012 5.1969e-013
1.35746e-009 2.42094e-009 2.96891e-009 2.92808e-009 2.40849e-009 1.63302e-009 8.03121e-010 -5.1969e-013 5.1969e-013 1.9917e-009
3.61639e-009 4.59485e-009 4.79741e-009 4.26025e-009 3.14367e-009 1.65736e-009 -5.1969e-013 1.03938e-012 1.96732e-009 3.57203e-009
4.53833e-009 4.73793e-009 4.20674e-009 3.10356e-009 1.63592e-009 -1.03938e-012 1.03938e-012 1.8939e-009 3.4383e-009 4.36742e-009
4.55757e-009 4.04398e-009 2.98134e-009 1.57045e-009 -1.03938e-012 1.03938e-012 1.77317e-009 3.21803e-009 4.08477e-009 4.25784e-009
3.7724e-009 2.77668e-009 1.46081e-009 -1.03938e-012 1.03938e-012 1.61482e-009 2.92823e-009 3.7114e-009 3.86001e-009 3.41032e-009
2.50294e-009 1.31383e-009 -1.03938e-012 1.03938e-012 1.43999e-009 2.60752e-009 3.29676e-009 3.41646e-009 3.00518e-009 2.19575e-009
1.14862e-009 -1.03938e-012 1.03938e-012 1.27953e-009 2.31272e-009 2.91462e-009 3.00657e-009 2.62974e-009 1.91051e-009 9.94991e-010
-1.03938e-012 1.03938e-012 1.16632e-009 2.10458e-009 2.64452e-009 2.71625e-009 2.36343e-009 1.70785e-009 8.85858e-010 -1.03938e-012
5.1969e-013 1.12545e-009 2.0295e-009 2.54695e-009 2.61133e-009 2.26706e-009 1.6345e-009 8.46331e-010 -5.1969e-013 5.1969e-013
1.58329e-009 2.89359e-009 3.7171e-009 3.9392e-009 3.55852e-009 2.66923e-009 1.4242e-009 -5.1969e-013 1.03938e-012 1.56608e-009
2.86198e-009 3.67632e-009 3.89571e-009 3.5189e-009 2.63927e-009 1.40806e-009 -1.03938e-012 1.03938e-012 1.51534e-009 2.76878e-009
3.55595e-009 3.76716e-009 3.40171e-009 2.55053e-009 1.36029e-009 -1.03938e-012 1.03938e-012 1.43456e-009 2.62056e-009 3.36423e-009
3.56208e-009 3.21441e-009 2.40853e-009 1.28393e-009 -1.03938e-012 1.03938e-012 1.33222e-009 2.43256e-009 3.12071e-009 3.30108e-009
2.97559e-009 2.22721e-009 1.18631e-009 -1.03938e-012 1.03938e-012 1.22248e-009 2.2308e-009 2.85897e-009 3.02009e-009 2.71803e-009
2.03137e-009 1.08078e-009 -1.03938e-012 1.03938e-012 1.12387e-009 2.04933e-009 2.62332e-009 2.76675e-009 2.48552e-009 1.85437e-009
9.85327e-010 -1.03938e-012 1.03938e-012 1.05511e-009 1.92293e-009 2.45906e-009 2.59002e-009 2.32313e-009 1.73068e-009 9.18671e-010
-1.03938e-012 5.1969e-013 1.03045e-009 1.8776e-009 2.40012e-009 2.52656e-009 2.26482e-009 1.68622e-009 8.94722e-010 -5.1969e-013
5.1969e-013 1.60118e-009 2.94084e-009 3.80802e-009 4.07713e-009 3.72458e-009 2.8226e-009 1.51701e-009 -5.1969e-013 1.03938e-012
1.58609e-009 2.91299e-009 3.77185e-009 4.03823e-009 3.68888e-009 2.79543e-009 1.50233e-009 -1.03938e-012 1.03938e-012 1.54233e-009
2.83226e-009 3.6669e-009 3.92534e-009 3.58522e-009 2.7165e-009 1.45967e-009 -1.03938e-012 1.03938e-012 1.47452e-009 2.70738e-009
3.50452e-009 3.7506e-009 3.42469e-009 2.59421e-009 1.3937e-009 -1.03938e-012 1.03938e-012 1.39123e-009 2.55393e-009 3.30493e-009
3.53568e-009 3.22715e-009 2.44367e-009 1.31246e-009 -1.03938e-012 1.03938e-012 1.30443e-009 2.39399e-009 3.0968e-009 3.31145e-009
3.02094e-009 2.28643e-009 1.22758e-009 -1.03938e-012 1.03938e-012 1.22816e-009 2.25341e-009 2.91381e-009 3.11421e-009 2.83945e-009
2.14802e-009 1.15283e-009 -1.03938e-012 1.03938e-012 1.17576e-009 2.15697e-009 2.78826e-009 2.97884e-009 2.71485e-009 2.05296e-009
1.10158e-009 -1.03938e-012 5.1969e-013 1.15711e-009 2.12265e-009 2.74356e-009 2.93063e-009 2.67047e-009 2.01908e-009 1.08331e-009
-5.1969e-013 5.1969e-013 2.23383e-009 4.10593e-009 5.32275e-009 5.70718e-009 5.22195e-009 3.96316e-009 2.13233e-009 -5.1969e-013
1.03938e-012 2.21258e-009 4.06668e-009 5.27167e-009 5.65214e-009 5.17134e-009 3.92457e-009 2.11146e-009 -1.03938e-012 1.03938e-012
2.15124e-009 3.95345e-009 5.12426e-009 5.49331e-009 5.02525e-009 3.81317e-009 2.05123e-009 -1.03938e-012 1.03938e-012 2.0571e-009
3.77994e-009 4.89836e-009 5.24984e-009 4.80127e-009 3.64235e-009 1.959e-009 -1.03938e-012 1.03938e-012 1.94272e-009 3.56908e-009
4.62381e-009 4.95386e-009 4.52892e-009 3.4346e-009 1.84682e-009 -1.03938e-012 1.03938e-012 1.82478e-009 3.35163e-009 4.34061e-009
4.64849e-009 4.24784e-009 3.22014e-009 1.731e-009 -1.03938e-012 1.03938e-012 1.72203e-009 3.16217e-009 4.09385e-009 4.38234e-009
4.00281e-009 3.03316e-009 1.63e-009 -1.03938e-012 1.03938e-012 1.65189e-009 3.03299e-009 3.92559e-009 4.20083e-009 3.83567e-009
2.9056e-009 1.56118e-009 -1.03938e-012 5.1969e-013 1.62699e-009 2.98715e-009 3.86586e-009 4.1364e-009 3.77633e-009 2.86031e-009
1.53676e-009 -5.1969e-013 5.1969e-013 1.53674e-009 2.82899e-009 3.67642e-009 3.95394e-009 3.62926e-009 2.76208e-009 1.48888e-009
-5.1969e-013 1.03938e-012 1.52377e-009 2.80497e-009 3.64511e-009 3.92015e-009 3.59814e-009 2.73831e-009 1.47599e-009 -1.03938e-012
1.03938e-012 1.48645e-009 2.73596e-009 3.55514e-009 3.82305e-009 3.50869e-009 2.67e-009 1.43899e-009 -1.03938e-012 1.03938e-012
1.42953e-009 2.63094e-009 3.41823e-009 3.67528e-009 3.37256e-009 2.56605e-009 1.38282e-009 -1.03938e-012 1.03938e-012 1.36094e-009
2.5044e-009 3.25329e-009 3.49723e-009 3.20851e-009 2.44078e-009 1.31513e-009 -1.03938e-012 1.03938e-012 1.29081e-009 2.37502e-009
3.08463e-009 3.31516e-009 3.04074e-009 2.31266e-009 1.24589e-009 -1.03938e-012 1.03938e-012 1.23016e-009 2.26312e-009 2.93876e-009
3.15769e-009 2.89563e-009 2.20185e-009 1.186e-009 -1.03938e-012 1.03938e-012 1.18893e-009 2.18722e-009 2.83983e-009 3.05088e-009
2.7972e-009 2.12668e-009 1.14548e-009 -1.03938e-012 5.1969e-013 1.17432e-009 2.16036e-009 2.80482e-009 3.01308e-009 2.76235e-009
2.10007e-009 1.13115e-009 -5.1969e-013 5.1969e-013 1.05895e-009 1.9514e-009 2.54018e-009 2.73753e-009 2.51804e-009 1.91985e-009
1.03608e-009 -5.1969e-013 1.03938e-012 1.05112e-009 1.93687e-009 2.52122e-009 2.71705e-009 2.49915e-009 1.90542e-009 1.02823e-009
-1.03938e-012 1.03938e-012 1.02866e-009 1.89524e-009 2.4669e-009 2.65835e-009 2.44502e-009 1.86403e-009 1.00577e-009 -1.03938e-012
1.03938e-012 9.94509e-010 1.8322e-009 2.38463e-009 2.56947e-009 2.36306e-009 1.80139e-009 9.71898e-010 -1.03938e-012 1.03938e-012
9.53603e-010 1.75669e-009 2.28614e-009 2.46306e-009 2.26492e-009 1.72639e-009 9.31353e-010 -1.03938e-012 1.03938e-012 9.12039e-010
1.67998e-009 2.18606e-009 2.35494e-009 2.16522e-009 1.6502e-009 8.90164e-010 -1.03938e-012 1.03938e-012 8.76286e-010 1.61398e-009
2.09999e-009 2.26196e-009 2.07948e-009 1.5847e-009 8.54748e-010 -1.03938e-012 1.03938e-012 8.52039e-010 1.5694e-009 2.04186e-009
2.19915e-009 2.02157e-009 1.54046e-009 8.30925e-010 -1.03938e-012 5.1969e-013 8.43468e-010 1.55366e-009 2.02133e-009 2.17697e-009
2.00111e-009 1.52483e-009 8.22518e-010 -5.1969e-013 5.1969e-013 7.30758e-010 1.34745e-009 1.75594e-009 1.89494e-009 1.74543e-009
1.33234e-009 7.19511e-010 -5.1969e-013 1.03938e-012 7.26083e-010 1.33874e-009 1.74457e-009 1.88265e-009 1.73409e-009 1.32367e-009
7.14775e-010 -1.03938e-012 1.03938e-012 7.12692e-010 1.31384e-009 1.71204e-009 1.84748e-009 1.70163e-009 1.29883e-009 7.01251e-010
-1.03938e-012 1.03938e-012 6.92338e-010 1.27626e-009 1.66297e-009 1.79442e-009 1.65266e-009 1.26138e-009 6.80994e-010 -1.03938e-012
1.03938e-012 6.68065e-010 1.23143e-009 1.60446e-009 1.73117e-009 1.5943e-009 1.21675e-009 6.5686e-010 -1.03938e-012 1.03938e-012
6.43509e-010 1.18609e-009 1.54529e-009 1.66721e-009 1.53529e-009 1.17164e-009 6.32462e-010 -1.03938e-012 1.03938e-012 6.22468e-010
1.14725e-009 1.49462e-009 1.61244e-009 1.48475e-009 1.13302e-009 6.11578e-010 -1.03938e-012 1.03938e-012 6.08201e-010 1.12108e-009
1.46049e-009 1.57555e-009 1.45073e-009 1.10703e-009 5.97615e-010 -1.03938e-012 5.1969e-013 6.03163e-010 1.11186e-009 1.44845e-009
1.56255e-009 1.43873e-009 1.09785e-009 5.92698e-010 -5.1969e-013 5.1969e-013 5.05006e-010 9.31469e-010 1.2147e-009 1.31203e-009
1.2096e-009 9.23997e-010 4.99158e-010 -5.1969e-013 1.03938e-012 5.02244e-010 9.26285e-010 1.20794e-009 1.3047e-009 1.20284e-009
9.18826e-010 4.96316e-010 -1.03938e-012 1.03938e-012 4.94331e-010 9.115e-010 1.1886e-009 1.28379e-009 1.18352e-009 9.04031e-010
4.8822e-010 -1.03938e-012 1.03938e-012 4.82274e-010 8.8923e-010 1.1595e-009 1.25231e-009 1.15445e-009 8.81779e-010 4.76182e-010
-1.03938e-012 1.03938e-012 4.67934e-010 8.62742e-010 1.12492e-009 1.2149e-009 1.11992e-009 8.55366e-010 4.61893e-010 -1.03938e-012
1.03938e-012 4.53472e-010 8.36037e-010 1.09005e-009 1.1772e-009 1.08512e-009 8.28755e-010 4.475e-010 -1.03938e-012 1.03938e-012
4.41112e-010 8.13211e-010 1.06028e-009 1.14501e-009 1.05541e-009 8.06055e-010 4.35222e-010 -1.03938e-012 1.03938e-012 4.3271e-010
7.97866e-010 1.04027e-009 1.12338e-009 1.03546e-009 7.90816e-010 4.27071e-010 -1.03938e-012 5.1969e-013 4.29743e-010 7.92469e-010
1.03323e-009 1.11576e-009 1.02843e-009 7.85441e-010 4.24208e-010 -5.1969e-013 5.1969e-013 3.49608e-010 6.44868e-010 8.41298e-010
9.09205e-010 8.38692e-010 6.40936e-010 3.46262e-010 -5.1969e-013 1.03938e-012 3.47993e-010 6.41803e-010 8.37294e-010 9.04871e-010
8.34688e-010 6.37872e-010 3.4456e-010 -1.03938e-012 1.03938e-012 3.43362e-010 6.33077e-010 8.2587e-010 8.92504e-010 8.23261e-010
6.29108e-010 3.39725e-010 -1.03938e-012 1.03938e-012 3.36257e-010 6.19951e-010 8.08702e-010 8.73923e-010 8.06094e-010 6.15956e-010
3.32609e-010 -1.03938e-012 1.03938e-012 3.27819e-010 6.04362e-010 7.88342e-010 8.51893e-010 7.85749e-010 6.0039e-010 3.24186e-010
-1.03938e-012 1.03938e-012 3.19326e-010 5.88677e-010 7.67861e-010 8.29743e-010 7.65301e-010 5.8475e-010 3.15726e-010 -1.03938e-012
1.03938e-012 3.12079e-010 5.75292e-010 7.50406e-010 8.1087e-010 7.47885e-010 5.71446e-010 3.08529e-010 -1.03938e-012 1.03938e-012
3.07119e-010 5.66302e-010 7.38696e-010 7.98212e-010 7.36205e-010 5.62534e-010 3.03801e-010 -1.03938e-012 5.1969e-013 3.05366e-010
5.63147e-010 7.34576e-010 7.93757e-010 7.32095e-010 5.5939e-010 3.02144e-010 -5.1969e-013 5.1969e-013 2.42607e-010 4.47407e-010
5.8379e-010 6.31106e-010 5.82342e-010 4.45111e-010 2.40419e-010 -5.1969e-013 1.03938e-012 2.41675e-010 4.45603e-010 5.81434e-010
6.28554e-010 5.79982e-010 4.43305e-010 2.39398e-010 -1.03938e-012 1.03938e-012 2.38997e-010 4.40481e-010 5.74715e-010 6.21276e-010
5.73253e-010 4.38133e-010 2.36506e-010 -1.03938e-012 1.03938e-012 2.34828e-010 4.32779e-010 5.6463e-010 6.10354e-010 5.63156e-010
4.30389e-010 2.32314e-010 -1.03938e-012 1.03938e-012 2.2988e-010 4.23636e-010 5.52685e-010 5.97425e-010 5.51211e-010 4.21248e-010
2.27367e-010 -1.03938e-012 1.03938e-012 2.24905e-010 4.14447e-010 5.40685e-010 5.84447e-010 5.39231e-010 4.12083e-010 2.2241e-010
-1.03938e-012 1.03938e-012 2.2066e-010 4.06608e-010 5.30472e-010 5.73407e-010 5.29044e-010 4.04309e-010 2.18204e-010 -1.03938e-012
1.03938e-012 2.17718e-010 4.01345e-010 5.23628e-010 5.6601e-010 5.22222e-010 3.99112e-010 2.15486e-010 -1.03938e-012 5.1969e-013
2.16676e-010 3.99502e-010 5.2122e-010 5.63409e-010 5.19822e-010 3.97276e-010 2.14537e-010 -5.1969e-013 5.1969e-013 1.68899e-010
3.11327e-010 4.06219e-010 4.39194e-010 4.05306e-010 3.09787e-010 1.67245e-010 -5.1969e-013 1.03938e-012 1.68371e-010 3.10269e-010
4.04837e-010 4.37696e-010 4.0392e-010 3.08726e-010 1.66627e-010 -1.03938e-012 1.03938e-012 1.66845e-010 3.07278e-010 4.009e-010
4.33426e-010 3.99967e-010 3.05679e-010 1.64885e-010 -1.03938e-012 1.03938e-012 1.64409e-010 3.02775e-010 3.94993e-010 4.27024e-010
3.94045e-010 3.01128e-010 1.62421e-010 -1.03938e-012 1.03938e-012 1.61515e-010 2.97425e-010 3.88002e-010 4.19455e-010 3.87049e-010
2.95773e-010 1.59521e-010 -1.03938e-012 1.03938e-012 1.58604e-010 2.92051e-010 3.80984e-010 4.11866e-010 3.80044e-010 2.90414e-010
1.56623e-010 -1.03938e-012 1.03938e-012 1.56119e-010 2.87462e-010 3.75015e-010 4.05416e-010 3.74096e-010 2.85882e-010 1.54172e-010