# vtk DataFile Version 2.0
domain, Created by Gmsh 4.14.0 
ASCII
DATASET UNSTRUCTURED_GRID
POINTS 435 double
0 0.5 0
1 0.5 0
1 1 0
0 1 0
0.07142857142857142 0.5 0
0.1428571428571428 0.5 0
0.2142857142857143 0.5 0
0.2857142857142857 0.5 0
0.3571428571428571 0.5 0
0.4285714285714285 0.5 0
0.5 0.5 0
0.5714285714285714 0.5 0
0.6428571428571428 0.5 0
0.7142857142857142 0.5 0
0.7857142857142857 0.5 0
0.8571428571428571 0.5 0
0.9285714285714285 0.5 0
0.03571428571428571 0.5 0
0.1071428571428571 0.5 0
0.1785714285714285 0.5 0
0.25 0.5 0
0.3214285714285714 0.5 0
0.3928571428571428 0.5 0
0.4642857142857142 0.5 0
0.5357142857142857 0.5 0
0.6071428571428571 0.5 0
0.6785714285714285 0.5 0
0.75 0.5 0
0.8214285714285714 0.5 0
0.8928571428571428 0.5 0
0.9642857142857143 0.5 0
1 0.5714285714285714 0
1 0.6428571428571428 0
1 0.7142857142857143 0
1 0.7857142857142857 0
1 0.8571428571428571 0
1 0.9285714285714286 0
1 0.5357142857142857 0
1 0.6071428571428571 0
1 0.6785714285714286 0
1 0.75 0
1 0.8214285714285714 0
1 0.8928571428571428 0
1 0.9642857142857142 0
0.9285714285714286 1 0
0.8571428571428572 1 0
0.7857142857142857 1 0
0.7142857142857143 1 0
0.6428571428571429 1 0
0.5714285714285714 1 0
0.5 1 0
0.4285714285714286 1 0
0.3571428571428572 1 0
0.2857142857142858 1 0
0.2142857142857143 1 0
0.1428571428571429 1 0
0.07142857142857151 1 0
0.9642857142857143 1 0
0.8928571428571429 1 0
0.8214285714285714 1 0
0.75 1 0
0.6785714285714286 1 0
0.6071428571428572 1 0
0.5357142857142858 1 0
0.4642857142857143 1 0
0.3928571428571429 1 0
0.3214285714285715 1 0
0.25 1 0
0.1785714285714286 1 0
0.1071428571428572 1 0
0.0357142857142857 1 0
0 0.9285714285714286 0
0 0.8571428571428572 0
0 0.7857142857142857 0
0 0.7142857142857143 0
0 0.6428571428571429 0
0 0.5714285714285714 0
0 0.9642857142857143 0
0 0.8928571428571429 0
0 0.8214285714285714 0
0 0.75 0
0 0.6785714285714286 0
0 0.6071428571428572 0
0 0.5357142857142858 0
0.0714285714285714 0.5714285714285714 0
0.07142857142857151 0.6428571428571429 0
0.07142857142857151 0.7142857142857143 0
0.0714285714285714 0.7857142857142857 0
0.07142857142857151 0.8571428571428572 0
0.07142857142857151 0.9285714285714286 0
0.1428571428571429 0.5714285714285714 0
0.1428571428571428 0.6428571428571429 0
0.1428571428571429 0.7142857142857143 0
0.1428571428571429 0.7857142857142857 0
0.1428571428571429 0.8571428571428572 0
0.1428571428571429 0.9285714285714286 0
0.2142857142857144 0.5714285714285714 0
0.2142857142857144 0.6428571428571429 0
0.2142857142857143 0.7142857142857143 0
0.2142857142857143 0.7857142857142857 0
0.2142857142857144 0.8571428571428572 0
0.2142857142857144 0.9285714285714286 0
0.2857142857142857 0.5714285714285714 0
0.2857142857142857 0.6428571428571429 0
0.2857142857142857 0.7142857142857143 0
0.2857142857142858 0.7857142857142857 0
0.2857142857142857 0.8571428571428572 0
0.2857142857142858 0.9285714285714286 0
0.3571428571428571 0.5714285714285714 0
0.3571428571428572 0.6428571428571429 0
0.3571428571428572 0.7142857142857143 0
0.3571428571428572 0.7857142857142857 0
0.3571428571428572 0.8571428571428571 0
0.3571428571428572 0.9285714285714286 0
0.4285714285714286 0.5714285714285714 0
0.4285714285714286 0.6428571428571429 0
0.4285714285714286 0.7142857142857143 0
0.4285714285714286 0.7857142857142857 0
0.4285714285714286 0.8571428571428571 0
0.4285714285714286 0.9285714285714286 0
0.5 0.5714285714285714 0
0.5 0.6428571428571429 0
0.5 0.7142857142857143 0
0.5 0.7857142857142857 0
0.5 0.8571428571428571 0
0.5 0.9285714285714286 0
0.5714285714285714 0.5714285714285714 0
0.5714285714285714 0.6428571428571429 0
0.5714285714285714 0.7142857142857143 0
0.5714285714285714 0.7857142857142857 0
0.5714285714285714 0.8571428571428571 0
0.5714285714285714 0.9285714285714286 0
0.6428571428571428 0.5714285714285714 0
0.6428571428571428 0.6428571428571429 0
0.6428571428571428 0.7142857142857143 0
0.6428571428571428 0.7857142857142857 0
0.6428571428571429 0.8571428571428571 0
0.642857142857143 0.9285714285714286 0
0.7142857142857142 0.5714285714285714 0
0.7142857142857142 0.6428571428571429 0
0.7142857142857142 0.7142857142857143 0
0.7142857142857143 0.7857142857142857 0
0.7142857142857142 0.8571428571428571 0
0.7142857142857143 0.9285714285714286 0
0.7857142857142857 0.5714285714285714 0
0.7857142857142857 0.6428571428571429 0
0.7857142857142857 0.7142857142857143 0
0.7857142857142857 0.7857142857142857 0
0.7857142857142857 0.8571428571428571 0
0.7857142857142857 0.9285714285714286 0
0.8571428571428571 0.5714285714285714 0
0.8571428571428572 0.6428571428571429 0
0.8571428571428572 0.7142857142857143 0
0.8571428571428572 0.7857142857142857 0
0.8571428571428572 0.8571428571428571 0
0.857142857142857 0.9285714285714286 0
0.9285714285714285 0.5714285714285714 0
0.9285714285714285 0.6428571428571429 0
0.9285714285714286 0.7142857142857143 0
0.9285714285714286 0.7857142857142857 0
0.9285714285714284 0.8571428571428571 0
0.9285714285714286 0.9285714285714286 0
0.0357142857142857 0.5357142857142857 0
0.0714285714285714 0.5357142857142857 0
0.0357142857142857 0.5714285714285714 0
0.0357142857142857 0.6071428571428572 0
0.07142857142857145 0.6071428571428572 0
0.03571428571428575 0.6428571428571429 0
0.03571428571428575 0.6785714285714286 0
0.07142857142857151 0.6785714285714286 0
0.03571428571428575 0.7142857142857143 0
0.03571428571428575 0.75 0
0.07142857142857145 0.75 0
0.0357142857142857 0.7857142857142857 0
0.0357142857142857 0.8214285714285714 0
0.07142857142857145 0.8214285714285714 0
0.03571428571428575 0.8571428571428572 0
0.03571428571428575 0.8928571428571428 0
0.07142857142857151 0.8928571428571429 0
0.03571428571428575 0.9285714285714286 0
0.03571428571428575 0.9642857142857143 0
0.07142857142857151 0.9642857142857143 0
0.1071428571428571 0.5357142857142857 0
0.1428571428571429 0.5357142857142857 0
0.1071428571428572 0.5714285714285714 0
0.1071428571428572 0.6071428571428572 0
0.1428571428571429 0.6071428571428572 0
0.1071428571428572 0.6428571428571429 0
0.1071428571428572 0.6785714285714286 0
0.1428571428571429 0.6785714285714286 0
0.1071428571428572 0.7142857142857143 0
0.1071428571428572 0.75 0
0.1428571428571429 0.75 0
0.1071428571428572 0.7857142857142857 0
0.1071428571428572 0.8214285714285714 0
0.1428571428571429 0.8214285714285714 0
0.1071428571428572 0.8571428571428572 0
0.1071428571428572 0.8928571428571429 0
0.1428571428571429 0.8928571428571429 0
0.1071428571428572 0.9285714285714286 0
0.1071428571428572 0.9642857142857143 0
0.1428571428571429 0.9642857142857143 0
0.1785714285714286 0.5357142857142857 0
0.2142857142857143 0.5357142857142857 0
0.1785714285714286 0.5714285714285714 0
0.1785714285714286 0.6071428571428572 0
0.2142857142857144 0.6071428571428572 0
0.1785714285714286 0.6428571428571429 0
0.1785714285714286 0.6785714285714286 0
0.2142857142857143 0.6785714285714286 0
0.1785714285714286 0.7142857142857143 0
0.1785714285714286 0.75 0
0.2142857142857143 0.75 0
0.1785714285714286 0.7857142857142857 0
0.1785714285714286 0.8214285714285714 0
0.2142857142857143 0.8214285714285714 0
0.1785714285714286 0.8571428571428572 0
0.1785714285714286 0.8928571428571429 0
0.2142857142857144 0.8928571428571429 0
0.1785714285714286 0.9285714285714286 0
0.1785714285714286 0.9642857142857143 0
0.2142857142857143 0.9642857142857143 0
0.25 0.5357142857142857 0
0.2857142857142857 0.5357142857142857 0
0.2500000000000001 0.5714285714285714 0
0.2500000000000001 0.6071428571428572 0
0.2857142857142857 0.6071428571428572 0
0.2500000000000001 0.6428571428571429 0
0.25 0.6785714285714286 0
0.2857142857142857 0.6785714285714286 0
0.25 0.7142857142857143 0
0.25 0.75 0
0.2857142857142858 0.75 0
0.2500000000000001 0.7857142857142857 0
0.2500000000000001 0.8214285714285714 0
0.2857142857142858 0.8214285714285714 0
0.2500000000000001 0.8571428571428572 0
0.2500000000000001 0.8928571428571429 0
0.2857142857142858 0.8928571428571428 0
0.2500000000000001 0.9285714285714286 0
0.2500000000000001 0.9642857142857143 0
0.2857142857142858 0.9642857142857143 0
0.3214285714285714 0.5357142857142857 0
0.3571428571428571 0.5357142857142857 0
0.3214285714285714 0.5714285714285714 0
0.3214285714285714 0.6071428571428572 0
0.3571428571428572 0.6071428571428572 0
0.3214285714285715 0.6428571428571429 0
0.3214285714285714 0.6785714285714286 0
0.3571428571428572 0.6785714285714286 0
0.3214285714285714 0.7142857142857143 0
0.3214285714285715 0.75 0
0.3571428571428572 0.75 0
0.3214285714285715 0.7857142857142857 0
0.3214285714285715 0.8214285714285714 0
0.3571428571428572 0.8214285714285714 0
0.3214285714285715 0.8571428571428572 0
0.3214285714285715 0.8928571428571428 0
0.3571428571428572 0.8928571428571428 0
0.3214285714285715 0.9285714285714286 0
0.3214285714285715 0.9642857142857143 0
0.3571428571428572 0.9642857142857143 0
0.3928571428571428 0.5357142857142857 0
0.4285714285714286 0.5357142857142857 0
0.3928571428571428 0.5714285714285714 0
0.3928571428571429 0.6071428571428572 0
0.4285714285714286 0.6071428571428572 0
0.3928571428571428 0.6428571428571429 0
0.3928571428571428 0.6785714285714286 0
0.4285714285714286 0.6785714285714286 0
0.3928571428571429 0.7142857142857143 0
0.3928571428571429 0.75 0
0.4285714285714286 0.75 0
0.3928571428571429 0.7857142857142857 0
0.3928571428571429 0.8214285714285714 0
0.4285714285714286 0.8214285714285714 0
0.3928571428571428 0.8571428571428571 0
0.3928571428571429 0.8928571428571428 0
0.4285714285714286 0.8928571428571428 0
0.3928571428571429 0.9285714285714286 0
0.3928571428571429 0.9642857142857143 0
0.4285714285714286 0.9642857142857143 0
0.4642857142857143 0.5357142857142857 0
0.5 0.5357142857142857 0
0.4642857142857143 0.5714285714285714 0
0.4642857142857143 0.6071428571428572 0
0.5 0.6071428571428572 0
0.4642857142857143 0.6428571428571429 0
0.4642857142857143 0.6785714285714286 0
0.5 0.6785714285714286 0
0.4642857142857143 0.7142857142857143 0
0.4642857142857143 0.75 0
0.5 0.75 0
0.4642857142857143 0.7857142857142857 0
0.4642857142857143 0.8214285714285714 0
0.5 0.8214285714285714 0
0.4642857142857143 0.8571428571428571 0
0.4642857142857143 0.8928571428571428 0
0.5 0.8928571428571428 0
0.4642857142857143 0.9285714285714286 0
0.4642857142857143 0.9642857142857143 0
0.5 0.9642857142857143 0
0.5357142857142857 0.5357142857142857 0
0.5714285714285714 0.5357142857142857 0
0.5357142857142857 0.5714285714285714 0
0.5357142857142857 0.6071428571428572 0
0.5714285714285714 0.6071428571428572 0
0.5357142857142857 0.6428571428571429 0
0.5357142857142857 0.6785714285714286 0
0.5714285714285714 0.6785714285714286 0
0.5357142857142857 0.7142857142857143 0
0.5357142857142857 0.75 0
0.5714285714285714 0.75 0
0.5357142857142857 0.7857142857142857 0
0.5357142857142857 0.8214285714285714 0
0.5714285714285714 0.8214285714285714 0
0.5357142857142857 0.8571428571428571 0
0.5357142857142857 0.8928571428571428 0
0.5714285714285714 0.8928571428571428 0
0.5357142857142857 0.9285714285714286 0
0.5357142857142857 0.9642857142857143 0
0.5714285714285714 0.9642857142857143 0
0.6071428571428571 0.5357142857142857 0
0.6428571428571428 0.5357142857142857 0
0.6071428571428571 0.5714285714285714 0
0.6071428571428571 0.6071428571428571 0
0.6428571428571428 0.6071428571428572 0
0.6071428571428571 0.6428571428571429 0
0.6071428571428571 0.6785714285714286 0
0.6428571428571428 0.6785714285714286 0
0.6071428571428571 0.7142857142857143 0
0.6071428571428571 0.75 0
0.6428571428571428 0.75 0
0.6071428571428571 0.7857142857142857 0
0.6071428571428572 0.8214285714285714 0
0.6428571428571429 0.8214285714285714 0
0.6071428571428572 0.8571428571428571 0
0.6071428571428572 0.8928571428571428 0
0.6428571428571429 0.8928571428571428 0
0.6071428571428572 0.9285714285714286 0
0.6071428571428572 0.9642857142857143 0
0.6428571428571429 0.9642857142857143 0
0.6785714285714285 0.5357142857142857 0
0.7142857142857142 0.5357142857142857 0
0.6785714285714286 0.5714285714285714 0
0.6785714285714285 0.6071428571428572 0
0.7142857142857142 0.6071428571428572 0
0.6785714285714285 0.6428571428571429 0
0.6785714285714286 0.6785714285714286 0
0.7142857142857142 0.6785714285714286 0
0.6785714285714285 0.7142857142857143 0
0.6785714285714285 0.75 0
0.7142857142857142 0.75 0
0.6785714285714286 0.7857142857142857 0
0.6785714285714286 0.8214285714285714 0
0.7142857142857143 0.8214285714285714 0
0.6785714285714286 0.8571428571428571 0
0.6785714285714286 0.8928571428571428 0
0.7142857142857143 0.8928571428571428 0
0.6785714285714286 0.9285714285714286 0
0.6785714285714286 0.9642857142857143 0
0.7142857142857143 0.9642857142857143 0
0.75 0.5357142857142857 0
0.7857142857142857 0.5357142857142857 0
0.75 0.5714285714285714 0
0.75 0.6071428571428572 0
0.7857142857142857 0.6071428571428572 0
0.75 0.6428571428571429 0
0.75 0.6785714285714286 0
0.7857142857142857 0.6785714285714286 0
0.75 0.7142857142857143 0
0.75 0.75 0
0.7857142857142857 0.75 0
0.75 0.7857142857142857 0
0.75 0.8214285714285714 0
0.7857142857142857 0.8214285714285714 0
0.75 0.8571428571428571 0
0.75 0.8928571428571428 0
0.7857142857142857 0.8928571428571428 0
0.75 0.9285714285714286 0
0.75 0.9642857142857143 0
0.7857142857142857 0.9642857142857143 0
0.8214285714285714 0.5357142857142857 0
0.8571428571428571 0.5357142857142857 0
0.8214285714285714 0.5714285714285714 0
0.8214285714285714 0.6071428571428572 0
0.8571428571428571 0.6071428571428572 0
0.8214285714285714 0.6428571428571429 0
0.8214285714285714 0.6785714285714286 0
0.8571428571428572 0.6785714285714286 0
0.8214285714285714 0.7142857142857143 0
0.8214285714285714 0.75 0
0.8571428571428572 0.75 0
0.8214285714285714 0.7857142857142857 0
0.8214285714285714 0.8214285714285714 0
0.8571428571428572 0.8214285714285714 0
0.8214285714285715 0.8571428571428571 0
0.8214285714285715 0.8928571428571428 0
0.8571428571428572 0.8928571428571428 0
0.8214285714285714 0.9285714285714286 0
0.8214285714285714 0.9642857142857143 0
0.8571428571428571 0.9642857142857143 0
0.8928571428571428 0.5357142857142857 0
0.9285714285714285 0.5357142857142857 0
0.8928571428571428 0.5714285714285714 0
0.8928571428571428 0.6071428571428572 0
0.9285714285714285 0.6071428571428572 0
0.8928571428571428 0.6428571428571429 0
0.8928571428571428 0.6785714285714286 0
0.9285714285714286 0.6785714285714286 0
0.8928571428571429 0.7142857142857143 0
0.8928571428571429 0.75 0
0.9285714285714286 0.75 0
0.8928571428571429 0.7857142857142857 0
0.8928571428571429 0.8214285714285714 0
0.9285714285714285 0.8214285714285714 0
0.8928571428571428 0.8571428571428571 0
0.8928571428571428 0.8928571428571428 0
0.9285714285714285 0.8928571428571428 0
0.8928571428571428 0.9285714285714286 0
0.8928571428571428 0.9642857142857143 0
0.9285714285714286 0.9642857142857143 0
0.9642857142857142 0.5357142857142857 0
0.9642857142857142 0.5714285714285714 0
0.9642857142857142 0.6071428571428572 0
0.9642857142857142 0.6428571428571429 0
0.9642857142857143 0.6785714285714286 0
0.9642857142857143 0.7142857142857143 0
0.9642857142857143 0.75 0
0.9642857142857143 0.7857142857142857 0
0.9642857142857142 0.8214285714285714 0
0.9642857142857142 0.8571428571428571 0
0.9642857142857143 0.8928571428571428 0
0.9642857142857143 0.9285714285714286 0
0.9642857142857143 0.9642857142857143 0

CELLS 238 1540
3 0 4 17
3 4 5 18
3 5 6 19
3 6 7 20
3 7 8 21
3 8 9 22
3 9 10 23
3 10 11 24
3 11 12 25
3 12 13 26
3 13 14 27
3 14 15 28
3 15 16 29
3 16 1 30
3 1 31 37
3 31 32 38
3 32 33 39
3 33 34 40
3 34 35 41
3 35 36 42
3 36 2 43
3 2 44 57
3 44 45 58
3 45 46 59
3 46 47 60
3 47 48 61
3 48 49 62
3 49 50 63
3 50 51 64
3 51 52 65
3 52 53 66
3 53 54 67
3 54 55 68
3 55 56 69
3 56 3 70
3 3 71 77
3 71 72 78
3 72 73 79
3 73 74 80
3 74 75 81
3 75 76 82
3 76 0 83
6 0 4 76 17 162 83
6 76 4 84 162 163 164
6 76 84 75 164 165 82
6 75 84 85 165 166 167
6 75 85 74 167 168 81
6 74 85 86 168 169 170
6 74 86 73 170 171 80
6 73 86 87 171 172 173
6 73 87 72 173 174 79
6 72 87 88 174 175 176
6 72 88 71 176 177 78
6 71 88 89 177 178 179
6 71 89 3 179 180 77
6 3 89 56 180 181 70
6 4 5 84 18 182 163
6 84 5 90 182 183 184
6 84 90 85 184 185 166
6 85 90 91 185 186 187
6 85 91 86 187 188 169
6 86 91 92 188 189 190
6 86 92 87 190 191 172
6 87 92 93 191 192 193
6 87 93 88 193 194 175
6 88 93 94 194 195 196
6 88 94 89 196 197 178
6 89 94 95 197 198 199
6 89 95 56 199 200 181
6 56 95 55 200 201 69
6 5 6 90 19 202 183
6 90 6 96 202 203 204
6 90 96 91 204 205 186
6 91 96 97 205 206 207
6 91 97 92 207 208 189
6 92 97 98 208 209 210
6 92 98 93 210 211 192
6 93 98 99 211 212 213
6 93 99 94 213 214 195
6 94 99 100 214 215 216
6 94 100 95 216 217 198
6 95 100 101 217 218 219
6 95 101 55 219 220 201
6 55 101 54 220 221 68
6 6 7 96 20 222 203
6 96 7 102 222 223 224
6 96 102 97 224 225 206
6 97 102 103 225 226 227
6 97 103 98 227 228 209
6 98 103 104 228 229 230
6 98 104 99 230 231 212
6 99 104 105 231 232 233
6 99 105 100 233 234 215
6 100 105 106 234 235 236
6 100 106 101 236 237 218
6 101 106 107 237 238 239
6 101 107 54 239 240 221
6 54 107 53 240 241 67
6 7 8 102 21 242 223
6 102 8 108 242 243 244
6 102 108 103 244 245 226
6 103 108 109 245 246 247
6 103 109 104 247 248 229
6 104 109 110 248 249 250
6 104 110 105 250 251 232
6 105 110 111 251 252 253
6 105 111 106 253 254 235
6 106 111 112 254 255 256
6 106 112 107 256 257 238
6 107 112 113 257 258 259
6 107 113 53 259 260 241
6 53 113 52 260 261 66
6 8 9 108 22 262 243
6 108 9 114 262 263 264
6 108 114 109 264 265 246
6 109 114 115 265 266 267
6 109 115 110 267 268 249
6 110 115 116 268 269 270
6 110 116 111 270 271 252
6 111 116 117 271 272 273
6 111 117 112 273 274 255
6 112 117 118 274 275 276
6 112 118 113 276 277 258
6 113 118 119 277 278 279
6 113 119 52 279 280 261
6 52 119 51 280 281 65
6 9 10 114 23 282 263
6 114 10 120 282 283 284
6 114 120 115 284 285 266
6 115 120 121 285 286 287
6 115 121 116 287 288 269
6 116 121 122 288 289 290
6 116 122 117 290 291 272
6 117 122 123 291 292 293
6 117 123 118 293 294 275
6 118 123 124 294 295 296
6 118 124 119 296 297 278
6 119 124 125 297 298 299
6 119 125 51 299 300 281
6 51 125 50 300 301 64
6 10 11 120 24 302 283
6 120 11 126 302 303 304
6 120 126 121 304 305 286
6 121 126 127 305 306 307
6 121 127 122 307 308 289
6 122 127 128 308 309 310
6 122 128 123 310 311 292
6 123 128 129 311 312 313
6 123 129 124 313 314 295
6 124 129 130 314 315 316
6 124 130 125 316 317 298
6 125 130 131 317 318 319
6 125 131 50 319 320 301
6 50 131 49 320 321 63
6 11 12 126 25 322 303
6 126 12 132 322 323 324
6 126 132 127 324 325 306
6 127 132 133 325 326 327
6 127 133 128 327 328 309
6 128 133 134 328 329 330
6 128 134 129 330 331 312
6 129 134 135 331 332 333
6 129 135 130 333 334 315
6 130 135 136 334 335 336
6 130 136 131 336 337 318
6 131 136 137 337 338 339
6 131 137 49 339 340 321
6 49 137 48 340 341 62
6 12 13 132 26 342 323
6 132 13 138 342 343 344
6 132 138 133 344 345 326
6 133 138 139 345 346 347
6 133 139 134 347 348 329
6 134 139 140 348 349 350
6 134 140 135 350 351 332
6 135 140 141 351 352 353
6 135 141 136 353 354 335
6 136 141 142 354 355 356
6 136 142 137 356 357 338
6 137 142 143 357 358 359
6 137 143 48 359 360 341
6 48 143 47 360 361 61
6 13 14 138 27 362 343
6 138 14 144 362 363 364
6 138 144 139 364 365 346
6 139 144 145 365 366 367
6 139 145 140 367 368 349
6 140 145 146 368 369 370
6 140 146 141 370 371 352
6 141 146 147 371 372 373
6 141 147 142 373 374 355
6 142 147 148 374 375 376
6 142 148 143 376 377 358
6 143 148 149 377 378 379
6 143 149 47 379 380 361
6 47 149 46 380 381 60
6 14 15 144 28 382 363
6 144 15 150 382 383 384
6 144 150 145 384 385 366
6 145 150 151 385 386 387
6 145 151 146 387 388 369
6 146 151 152 388 389 390
6 146 152 147 390 391 372
6 147 152 153 391 392 393
6 147 153 148 393 394 375
6 148 153 154 394 395 396
6 148 154 149 396 397 378
6 149 154 155 397 398 399
6 149 155 46 399 400 381
6 46 155 45 400 401 59
6 15 16 150 29 402 383
6 150 16 156 402 403 404
6 150 156 151 404 405 386
6 151 156 157 405 406 407
6 151 157 152 407 408 389
6 152 157 158 408 409 410
6 152 158 153 410 411 392
6 153 158 159 411 412 413
6 153 159 154 413 414 395
6 154 159 160 414 415 416
6 154 160 155 416 417 398
6 155 160 161 417 418 419
6 155 161 45 419 420 401
6 45 161 44 420 421 58
6 16 1 156 30 422 403
6 156 1 31 422 37 423
6 156 31 157 423 424 406
6 157 31 32 424 38 425
6 157 32 158 425 426 409
6 158 32 33 426 39 427
6 158 33 159 427 428 412
6 159 33 34 428 40 429
6 159 34 160 429 430 415
6 160 34 35 430 41 431
6 160 35 161 431 432 418
6 161 35 36 432 42 433
6 161 36 44 433 434 421
6 44 36 2 434 43 57

CELL_TYPES 238
21
21
21
21
21
21
21
21
21
21
21
21
21
21
21
21
21
21
21
21
21
21
21
21
21
21
21
21
21
21
21
21
21
21
21
21
21
21
21
21
21
21
22
22
22
22
22
22
22
22
22
22
22
22
22
22
22
22
22
22
22
22
22
22
22
22
22
22
22
22
22
22
22
22
22
22
22
22
22
22
22
22
22
22
22
22
22
22
22
22
22
22
22
22
22
22
22
22
22
22
22
22
22
22
22
22
22
22
22
22
22
22
22
22
22
22
22
22
22
22
22
22
22
22
22
22
22
22
22
22
22
22
22
22
22
22
22
22
22
22
22
22
22
22
22
22
22
22
22
22
22
22
22
22
22
22
22
22
22
22
22
22
22
22
22
22
22
22
22
22
22
22
22
22
22
22
22
22
22
22
22
22
22
22
22
22
22
22
22
22
22
22
22
22
22
22
22
22
22
22
22
22
22
22
22
22
22
22
22
22
22
22
22
22
22
22
22
22
22
22
22
22
22
22
22
22
22
22
22
22
22
22
22
22
22
22
22
22

CELL_DATA 238
SCALARS CellEntityIds int 1
LOOKUP_TABLE default
1
1
1
1
1
1
1
1
1
1
1
1
1
1
2
2
2
2
2
2
2
2
2
2
2
2
2
2
2
2
2
2
2
2
2
2
2
2
2
2
2
2
1
1
1
1
1
1
1
1
1
1
1
1
1
1
1
1
1
1
1
1
1
1
1
1
1
1
1
1
1
1
1
1
1
1
1
1
1
1
1
1
1
1
1
1
1
1
1
1
1
1
1
1
1
1
1
1
1
1
1
1
1
1
1
1
1
1
1
1
1
1
1
1
1
1
1
1
1
1
1
1
1
1
1
1
1
1
1
1
1
1
1
1
1
1
1
1
1
1
1
1
1
1
1
1
1
1
1
1
1
1
1
1
1
1
1
1
1
1
1
1
1
1
1
1
1
1
1
1
1
1
1
1
1
1
1
1
1
1
1
1
1
1
1
1
1
1
1
1
1
1
1
1
1
1
1
1
1
1
1
1
1
1
1
1
1
1
1
1
1
1
1
1
1
1
1
1
1
1
1
1
1
1
1
1
1
1
1
1
1
1
1
1
1
1
1
1
