# vtk DataFile Version 2.0
domain, Created by Gmsh 4.14.0 
ASCII
DATASET UNSTRUCTURED_GRID
POINTS 338 double
0 0 0
1 0 0
1 1 0
0 1 0
0 0 0.1
1 0 0.1
1 1 0.1
0 1 0.1
0.08333333333333333 0 0
0.1666666666666667 0 0
0.25 0 0
0.3333333333333333 0 0
0.4166666666666666 0 0
0.5 0 0
0.5833333333333333 0 0
0.6666666666666666 0 0
0.75 0 0
0.8333333333333333 0 0
0.9166666666666666 0 0
1 0.08333333333333333 0
1 0.1666666666666667 0
1 0.25 0
1 0.3333333333333333 0
1 0.4166666666666666 0
1 0.5 0
1 0.5833333333333333 0
1 0.6666666666666666 0
1 0.75 0
1 0.8333333333333333 0
1 0.9166666666666666 0
0.9166666666666666 1 0
0.8333333333333334 1 0
0.75 1 0
0.6666666666666667 1 0
0.5833333333333334 1 0
0.5 1 0
0.4166666666666667 1 0
0.3333333333333334 1 0
0.25 1 0
0.1666666666666667 1 0
0.08333333333333337 1 0
0 0.9166666666666666 0
0 0.8333333333333334 0
0 0.75 0
0 0.6666666666666667 0
0 0.5833333333333334 0
0 0.5 0
0 0.4166666666666667 0
0 0.3333333333333334 0
0 0.25 0
0 0.1666666666666667 0
0 0.08333333333333337 0
0.08333333333333333 0 0.1
0.1666666666666667 0 0.1
0.25 0 0.1
0.3333333333333333 0 0.1
0.4166666666666666 0 0.1
0.5 0 0.1
0.5833333333333333 0 0.1
0.6666666666666666 0 0.1
0.75 0 0.1
0.8333333333333333 0 0.1
0.9166666666666666 0 0.1
1 0.08333333333333333 0.1
1 0.1666666666666667 0.1
1 0.25 0.1
1 0.3333333333333333 0.1
1 0.4166666666666666 0.1
1 0.5 0.1
1 0.5833333333333333 0.1
1 0.6666666666666666 0.1
1 0.75 0.1
1 0.8333333333333333 0.1
1 0.9166666666666666 0.1
0.9166666666666666 1 0.1
0.8333333333333334 1 0.1
0.75 1 0.1
0.6666666666666667 1 0.1
0.5833333333333334 1 0.1
0.5 1 0.1
0.4166666666666667 1 0.1
0.3333333333333334 1 0.1
0.25 1 0.1
0.1666666666666667 1 0.1
0.08333333333333337 1 0.1
0 0.9166666666666666 0.1
0 0.8333333333333334 0.1
0 0.75 0.1
0 0.6666666666666667 0.1
0 0.5833333333333334 0.1
0 0.5 0.1
0 0.4166666666666667 0.1
0 0.3333333333333334 0.1
0 0.25 0.1
0 0.1666666666666667 0.1
0 0.08333333333333337 0.1
0.08333333333333337 0.08333333333333326 0
0.08333333333333337 0.1666666666666667 0
0.08333333333333343 0.2499999999999999 0
0.08333333333333326 0.3333333333333334 0
0.08333333333333337 0.4166666666666667 0
0.08333333333333337 0.5 0
0.08333333333333337 0.5833333333333334 0
0.08333333333333337 0.6666666666666667 0
0.08333333333333337 0.75 0
0.08333333333333337 0.8333333333333335 0
0.08333333333333337 0.9166666666666666 0
0.1666666666666666 0.08333333333333326 0
0.1666666666666666 0.1666666666666667 0
0.1666666666666667 0.2499999999999999 0
0.1666666666666666 0.3333333333333334 0
0.1666666666666667 0.4166666666666667 0
0.1666666666666667 0.5 0
0.1666666666666667 0.5833333333333334 0
0.1666666666666667 0.6666666666666667 0
0.1666666666666667 0.75 0
0.1666666666666667 0.8333333333333334 0
0.1666666666666668 0.9166666666666666 0
0.25 0.08333333333333331 0
0.2500000000000001 0.1666666666666667 0
0.25 0.25 0
0.25 0.3333333333333334 0
0.2500000000000001 0.4166666666666667 0
0.25 0.5 0
0.25 0.5833333333333334 0
0.25 0.6666666666666666 0
0.25 0.75 0
0.2499999999999999 0.8333333333333334 0
0.25 0.9166666666666665 0
0.3333333333333334 0.0833333333333332 0
0.3333333333333333 0.1666666666666667 0
0.3333333333333334 0.25 0
0.3333333333333333 0.3333333333333334 0
0.3333333333333333 0.4166666666666667 0
0.3333333333333334 0.5 0
0.3333333333333334 0.5833333333333334 0
0.3333333333333334 0.6666666666666666 0
0.3333333333333333 0.75 0
0.3333333333333334 0.8333333333333334 0
0.3333333333333334 0.9166666666666666 0
0.4166666666666666 0.08333333333333326 0
0.4166666666666666 0.1666666666666666 0
0.4166666666666666 0.2499999999999999 0
0.4166666666666667 0.3333333333333334 0
0.4166666666666666 0.4166666666666667 0
0.4166666666666667 0.5 0
0.4166666666666667 0.5833333333333333 0
0.4166666666666667 0.6666666666666666 0
0.4166666666666667 0.75 0
0.4166666666666667 0.8333333333333334 0
0.4166666666666667 0.9166666666666666 0
0.5 0.08333333333333331 0
0.5 0.1666666666666666 0
0.5 0.25 0
0.5 0.3333333333333334 0
0.5 0.4166666666666667 0
0.5 0.5 0
0.5 0.5833333333333333 0
0.5 0.6666666666666666 0
0.5 0.75 0
0.5 0.8333333333333334 0
0.5 0.9166666666666666 0
0.5833333333333333 0.08333333333333326 0
0.5833333333333333 0.1666666666666667 0
0.5833333333333333 0.25 0
0.5833333333333333 0.3333333333333334 0
0.5833333333333333 0.4166666666666667 0
0.5833333333333333 0.5 0
0.5833333333333333 0.5833333333333333 0
0.5833333333333334 0.6666666666666666 0
0.5833333333333333 0.75 0
0.5833333333333334 0.8333333333333334 0
0.5833333333333334 0.9166666666666666 0
0.6666666666666666 0.08333333333333326 0
0.6666666666666666 0.1666666666666666 0
0.6666666666666667 0.25 0
0.6666666666666666 0.3333333333333334 0
0.6666666666666666 0.4166666666666666 0
0.6666666666666667 0.5 0
0.6666666666666666 0.5833333333333333 0
0.6666666666666666 0.6666666666666666 0
0.6666666666666666 0.75 0
0.6666666666666666 0.8333333333333334 0
0.6666666666666667 0.9166666666666666 0
0.75 0.08333333333333326 0
0.75 0.1666666666666667 0
0.75 0.2499999999999999 0
0.75 0.3333333333333334 0
0.75 0.4166666666666666 0
0.75 0.5 0
0.75 0.5833333333333333 0
0.75 0.6666666666666666 0
0.75 0.75 0
0.75 0.8333333333333333 0
0.75 0.9166666666666666 0
0.8333333333333333 0.08333333333333326 0
0.8333333333333333 0.1666666666666666 0
0.8333333333333333 0.25 0
0.8333333333333333 0.3333333333333333 0
0.8333333333333333 0.4166666666666666 0
0.8333333333333335 0.5 0
0.8333333333333334 0.5833333333333333 0
0.8333333333333334 0.6666666666666666 0
0.8333333333333334 0.75 0
0.8333333333333334 0.8333333333333333 0
0.8333333333333334 0.9166666666666666 0
0.9166666666666666 0.08333333333333326 0
0.9166666666666666 0.1666666666666666 0
0.9166666666666667 0.2499999999999999 0
0.9166666666666667 0.3333333333333333 0
0.9166666666666665 0.4166666666666666 0
0.9166666666666666 0.5 0
0.9166666666666666 0.5833333333333333 0
0.9166666666666666 0.6666666666666666 0
0.9166666666666666 0.75 0
0.9166666666666666 0.8333333333333333 0
0.9166666666666667 0.9166666666666666 0
0.08333333333333337 0.08333333333333326 0.1
0.08333333333333337 0.1666666666666667 0.1
0.08333333333333343 0.2499999999999999 0.1
0.08333333333333326 0.3333333333333334 0.1
0.08333333333333337 0.4166666666666667 0.1
0.08333333333333337 0.5 0.1
0.08333333333333337 0.5833333333333334 0.1
0.08333333333333337 0.6666666666666667 0.1
0.08333333333333337 0.75 0.1
0.08333333333333337 0.8333333333333335 0.1
0.08333333333333337 0.9166666666666666 0.1
0.1666666666666666 0.08333333333333326 0.1
0.1666666666666666 0.1666666666666667 0.1
0.1666666666666667 0.2499999999999999 0.1
0.1666666666666666 0.3333333333333334 0.1
0.1666666666666667 0.4166666666666667 0.1
0.1666666666666667 0.5 0.1
0.1666666666666667 0.5833333333333334 0.1
0.1666666666666667 0.6666666666666667 0.1
0.1666666666666667 0.75 0.1
0.1666666666666667 0.8333333333333334 0.1
0.1666666666666668 0.9166666666666666 0.1
0.25 0.08333333333333331 0.1
0.2500000000000001 0.1666666666666667 0.1
0.25 0.25 0.1
0.25 0.3333333333333334 0.1
0.2500000000000001 0.4166666666666667 0.1
0.25 0.5 0.1
0.25 0.5833333333333334 0.1
0.25 0.6666666666666666 0.1
0.25 0.75 0.1
0.2499999999999999 0.8333333333333334 0.1
0.25 0.9166666666666665 0.1
0.3333333333333334 0.0833333333333332 0.1
0.3333333333333333 0.1666666666666667 0.1
0.3333333333333334 0.25 0.1
0.3333333333333333 0.3333333333333334 0.1
0.3333333333333333 0.4166666666666667 0.1
0.3333333333333334 0.5 0.1
0.3333333333333334 0.5833333333333334 0.1
0.3333333333333334 0.6666666666666666 0.1
0.3333333333333333 0.75 0.1
0.3333333333333334 0.8333333333333334 0.1
0.3333333333333334 0.9166666666666666 0.1
0.4166666666666666 0.08333333333333326 0.1
0.4166666666666666 0.1666666666666666 0.1
0.4166666666666666 0.2499999999999999 0.1
0.4166666666666667 0.3333333333333334 0.1
0.4166666666666666 0.4166666666666667 0.1
0.4166666666666667 0.5 0.1
0.4166666666666667 0.5833333333333333 0.1
0.4166666666666667 0.6666666666666666 0.1
0.4166666666666667 0.75 0.1
0.4166666666666667 0.8333333333333334 0.1
0.4166666666666667 0.9166666666666666 0.1
0.5 0.08333333333333331 0.1
0.5 0.1666666666666666 0.1
0.5 0.25 0.1
0.5 0.3333333333333334 0.1
0.5 0.4166666666666667 0.1
0.5 0.5 0.1
0.5 0.5833333333333333 0.1
0.5 0.6666666666666666 0.1
0.5 0.75 0.1
0.5 0.8333333333333334 0.1
0.5 0.9166666666666666 0.1
0.5833333333333333 0.08333333333333326 0.1
0.5833333333333333 0.1666666666666667 0.1
0.5833333333333333 0.25 0.1
0.5833333333333333 0.3333333333333334 0.1
0.5833333333333333 0.4166666666666667 0.1
0.5833333333333333 0.5 0.1
0.5833333333333333 0.5833333333333333 0.1
0.5833333333333334 0.6666666666666666 0.1
0.5833333333333333 0.75 0.1
0.5833333333333334 0.8333333333333334 0.1
0.5833333333333334 0.9166666666666666 0.1
0.6666666666666666 0.08333333333333326 0.1
0.6666666666666666 0.1666666666666666 0.1
0.6666666666666667 0.25 0.1
0.6666666666666666 0.3333333333333334 0.1
0.6666666666666666 0.4166666666666666 0.1
0.6666666666666667 0.5 0.1
0.6666666666666666 0.5833333333333333 0.1
0.6666666666666666 0.6666666666666666 0.1
0.6666666666666666 0.75 0.1
0.6666666666666666 0.8333333333333334 0.1
0.6666666666666667 0.9166666666666666 0.1
0.75 0.08333333333333326 0.1
0.75 0.1666666666666667 0.1
0.75 0.2499999999999999 0.1
0.75 0.3333333333333334 0.1
0.75 0.4166666666666666 0.1
0.75 0.5 0.1
0.75 0.5833333333333333 0.1
0.75 0.6666666666666666 0.1
0.75 0.75 0.1
0.75 0.8333333333333333 0.1
0.75 0.9166666666666666 0.1
0.8333333333333333 0.08333333333333326 0.1
0.8333333333333333 0.1666666666666666 0.1
0.8333333333333333 0.25 0.1
0.8333333333333333 0.3333333333333333 0.1
0.8333333333333333 0.4166666666666666 0.1
0.8333333333333335 0.5 0.1
0.8333333333333334 0.5833333333333333 0.1
0.8333333333333334 0.6666666666666666 0.1
0.8333333333333334 0.75 0.1
0.8333333333333334 0.8333333333333333 0.1
0.8333333333333334 0.9166666666666666 0.1
0.9166666666666666 0.08333333333333326 0.1
0.9166666666666666 0.1666666666666666 0.1
0.9166666666666667 0.2499999999999999 0.1
0.9166666666666667 0.3333333333333333 0.1
0.9166666666666665 0.4166666666666666 0.1
0.9166666666666666 0.5 0.1
0.9166666666666666 0.5833333333333333 0.1
0.9166666666666666 0.6666666666666666 0.1
0.9166666666666666 0.75 0.1
0.9166666666666666 0.8333333333333333 0.1
0.9166666666666667 0.9166666666666666 0.1

CELLS 288 2016
4 4 52 217 95
4 95 217 218 94
4 94 218 219 93
4 93 219 220 92
4 92 220 221 91
4 91 221 222 90
4 90 222 223 89
4 89 223 224 88
4 88 224 225 87
4 87 225 226 86
4 86 226 227 85
4 85 227 84 7
4 52 53 228 217
4 217 228 229 218
4 218 229 230 219
4 219 230 231 220
4 220 231 232 221
4 221 232 233 222
4 222 233 234 223
4 223 234 235 224
4 224 235 236 225
4 225 236 237 226
4 226 237 238 227
4 227 238 83 84
4 53 54 239 228
4 228 239 240 229
4 229 240 241 230
4 230 241 242 231
4 231 242 243 232
4 232 243 244 233
4 233 244 245 234
4 234 245 246 235
4 235 246 247 236
4 236 247 248 237
4 237 248 249 238
4 238 249 82 83
4 54 55 250 239
4 239 250 251 240
4 240 251 252 241
4 241 252 253 242
4 242 253 254 243
4 243 254 255 244
4 244 255 256 245
4 245 256 257 246
4 246 257 258 247
4 247 258 259 248
4 248 259 260 249
4 249 260 81 82
4 55 56 261 250
4 250 261 262 251
4 251 262 263 252
4 252 263 264 253
4 253 264 265 254
4 254 265 266 255
4 255 266 267 256
4 256 267 268 257
4 257 268 269 258
4 258 269 270 259
4 259 270 271 260
4 260 271 80 81
4 56 57 272 261
4 261 272 273 262
4 262 273 274 263
4 263 274 275 264
4 264 275 276 265
4 265 276 277 266
4 266 277 278 267
4 267 278 279 268
4 268 279 280 269
4 269 280 281 270
4 270 281 282 271
4 271 282 79 80
4 57 58 283 272
4 272 283 284 273
4 273 284 285 274
4 274 285 286 275
4 275 286 287 276
4 276 287 288 277
4 277 288 289 278
4 278 289 290 279
4 279 290 291 280
4 280 291 292 281
4 281 292 293 282
4 282 293 78 79
4 58 59 294 283
4 283 294 295 284
4 284 295 296 285
4 285 296 297 286
4 286 297 298 287
4 287 298 299 288
4 288 299 300 289
4 289 300 301 290
4 290 301 302 291
4 291 302 303 292
4 292 303 304 293
4 293 304 77 78
4 59 60 305 294
4 294 305 306 295
4 295 306 307 296
4 296 307 308 297
4 297 308 309 298
4 298 309 310 299
4 299 310 311 300
4 300 311 312 301
4 301 312 313 302
4 302 313 314 303
4 303 314 315 304
4 304 315 76 77
4 60 61 316 305
4 305 316 317 306
4 306 317 318 307
4 307 318 319 308
4 308 319 320 309
4 309 320 321 310
4 310 321 322 311
4 311 322 323 312
4 312 323 324 313
4 313 324 325 314
4 314 325 326 315
4 315 326 75 76
4 61 62 327 316
4 316 327 328 317
4 317 328 329 318
4 318 329 330 319
4 319 330 331 320
4 320 331 332 321
4 321 332 333 322
4 322 333 334 323
4 323 334 335 324
4 324 335 336 325
4 325 336 337 326
4 326 337 74 75
4 62 5 63 327
4 327 63 64 328
4 328 64 65 329
4 329 65 66 330
4 330 66 67 331
4 331 67 68 332
4 332 68 69 333
4 333 69 70 334
4 334 70 71 335
4 335 71 72 336
4 336 72 73 337
4 337 73 6 74
8 0 8 96 51 4 52 217 95
8 51 96 97 50 95 217 218 94
8 50 97 98 49 94 218 219 93
8 49 98 99 48 93 219 220 92
8 48 99 100 47 92 220 221 91
8 47 100 101 46 91 221 222 90
8 46 101 102 45 90 222 223 89
8 45 102 103 44 89 223 224 88
8 44 103 104 43 88 224 225 87
8 43 104 105 42 87 225 226 86
8 42 105 106 41 86 226 227 85
8 41 106 40 3 85 227 84 7
8 8 9 107 96 52 53 228 217
8 96 107 108 97 217 228 229 218
8 97 108 109 98 218 229 230 219
8 98 109 110 99 219 230 231 220
8 99 110 111 100 220 231 232 221
8 100 111 112 101 221 232 233 222
8 101 112 113 102 222 233 234 223
8 102 113 114 103 223 234 235 224
8 103 114 115 104 224 235 236 225
8 104 115 116 105 225 236 237 226
8 105 116 117 106 226 237 238 227
8 106 117 39 40 227 238 83 84
8 9 10 118 107 53 54 239 228
8 107 118 119 108 228 239 240 229
8 108 119 120 109 229 240 241 230
8 109 120 121 110 230 241 242 231
8 110 121 122 111 231 242 243 232
8 111 122 123 112 232 243 244 233
8 112 123 124 113 233 244 245 234
8 113 124 125 114 234 245 246 235
8 114 125 126 115 235 246 247 236
8 115 126 127 116 236 247 248 237
8 116 127 128 117 237 248 249 238
8 117 128 38 39 238 249 82 83
8 10 11 129 118 54 55 250 239
8 118 129 130 119 239 250 251 240
8 119 130 131 120 240 251 252 241
8 120 131 132 121 241 252 253 242
8 121 132 133 122 242 253 254 243
8 122 133 134 123 243 254 255 244
8 123 134 135 124 244 255 256 245
8 124 135 136 125 245 256 257 246
8 125 136 137 126 246 257 258 247
8 126 137 138 127 247 258 259 248
8 127 138 139 128 248 259 260 249
8 128 139 37 38 249 260 81 82
8 11 12 140 129 55 56 261 250
8 129 140 141 130 250 261 262 251
8 130 141 142 131 251 262 263 252
8 131 142 143 132 252 263 264 253
8 132 143 144 133 253 264 265 254
8 133 144 145 134 254 265 266 255
8 134 145 146 135 255 266 267 256
8 135 146 147 136 256 267 268 257
8 136 147 148 137 257 268 269 258
8 137 148 149 138 258 269 270 259
8 138 149 150 139 259 270 271 260
8 139 150 36 37 260 271 80 81
8 12 13 151 140 56 57 272 261
8 140 151 152 141 261 272 273 262
8 141 152 153 142 262 273 274 263
8 142 153 154 143 263 274 275 264
8 143 154 155 144 264 275 276 265
8 144 155 156 145 265 276 277 266
8 145 156 157 146 266 277 278 267
8 146 157 158 147 267 278 279 268
8 147 158 159 148 268 279 280 269
8 148 159 160 149 269 280 281 270
8 149 160 161 150 270 281 282 271
8 150 161 35 36 271 282 79 80
8 13 14 162 151 57 58 283 272
8 151 162 163 152 272 283 284 273
8 152 163 164 153 273 284 285 274
8 153 164 165 154 274 285 286 275
8 154 165 166 155 275 286 287 276
8 155 166 167 156 276 287 288 277
8 156 167 168 157 277 288 289 278
8 157 168 169 158 278 289 290 279
8 158 169 170 159 279 290 291 280
8 159 170 171 160 280 291 292 281
8 160 171 172 161 281 292 293 282
8 161 172 34 35 282 293 78 79
8 14 15 173 162 58 59 294 283
8 162 173 174 163 283 294 295 284
8 163 174 175 164 284 295 296 285
8 164 175 176 165 285 296 297 286
8 165 176 177 166 286 297 298 287
8 166 177 178 167 287 298 299 288
8 167 178 179 168 288 299 300 289
8 168 179 180 169 289 300 301 290
8 169 180 181 170 290 301 302 291
8 170 181 182 171 291 302 303 292
8 171 182 183 172 292 303 304 293
8 172 183 33 34 293 304 77 78
8 15 16 184 173 59 60 305 294
8 173 184 185 174 294 305 306 295
8 174 185 186 175 295 306 307 296
8 175 186 187 176 296 307 308 297
8 176 187 188 177 297 308 309 298
8 177 188 189 178 298 309 310 299
8 178 189 190 179 299 310 311 300
8 179 190 191 180 300 311 312 301
8 180 191 192 181 301 312 313 302
8 181 192 193 182 302 313 314 303
8 182 193 194 183 303 314 315 304
8 183 194 32 33 304 315 76 77
8 16 17 195 184 60 61 316 305
8 184 195 196 185 305 316 317 306
8 185 196 197 186 306 317 318 307
8 186 197 198 187 307 318 319 308
8 187 198 199 188 308 319 320 309
8 188 199 200 189 309 320 321 310
8 189 200 201 190 310 321 322 311
8 190 201 202 191 311 322 323 312
8 191 202 203 192 312 323 324 313
8 192 203 204 193 313 324 325 314
8 193 204 205 194 314 325 326 315
8 194 205 31 32 315 326 75 76
8 17 18 206 195 61 62 327 316
8 195 206 207 196 316 327 328 317
8 196 207 208 197 317 328 329 318
8 197 208 209 198 318 329 330 319
8 198 209 210 199 319 330 331 320
8 199 210 211 200 320 331 332 321
8 200 211 212 201 321 332 333 322
8 201 212 213 202 322 333 334 323
8 202 213 214 203 323 334 335 324
8 203 214 215 204 324 335 336 325
8 204 215 216 205 325 336 337 326
8 205 216 30 31 326 337 74 75
8 18 1 19 206 62 5 63 327
8 206 19 20 207 327 63 64 328
8 207 20 21 208 328 64 65 329
8 208 21 22 209 329 65 66 330
8 209 22 23 210 330 66 67 331
8 210 23 24 211 331 67 68 332
8 211 24 25 212 332 68 69 333
8 212 25 26 213 333 69 70 334
8 213 26 27 214 334 70 71 335
8 214 27 28 215 335 71 72 336
8 215 28 29 216 336 72 73 337
8 216 29 2 30 337 73 6 74

CELL_TYPES 288
9
9
9
9
9
9
9
9
9
9
9
9
9
9
9
9
9
9
9
9
9
9
9
9
9
9
9
9
9
9
9
9
9
9
9
9
9
9
9
9
9
9
9
9
9
9
9
9
9
9
9
9
9
9
9
9
9
9
9
9
9
9
9
9
9
9
9
9
9
9
9
9
9
9
9
9
9
9
9
9
9
9
9
9
9
9
9
9
9
9
9
9
9
9
9
9
9
9
9
9
9
9
9
9
9
9
9
9
9
9
9
9
9
9
9
9
9
9
9
9
9
9
9
9
9
9
9
9
9
9
9
9
9
9
9
9
9
9
9
9
9
9
9
9
12
12
12
12
12
12
12
12
12
12
12
12
12
12
12
12
12
12
12
12
12
12
12
12
12
12
12
12
12
12
12
12
12
12
12
12
12
12
12
12
12
12
12
12
12
12
12
12
12
12
12
12
12
12
12
12
12
12
12
12
12
12
12
12
12
12
12
12
12
12
12
12
12
12
12
12
12
12
12
12
12
12
12
12
12
12
12
12
12
12
12
12
12
12
12
12
12
12
12
12
12
12
12
12
12
12
12
12
12
12
12
12
12
12
12
12
12
12
12
12
12
12
12
12
12
12
12
12
12
12
12
12
12
12
12
12
12
12
12
12
12
12
12
12

CELL_DATA 288
SCALARS CellEntityIds int 1
LOOKUP_TABLE default
1
1
1
1
1
1
1
1
1
1
1
1
1
1
1
1
1
1
1
1
1
1
1
1
1
1
1
1
1
1
1
1
1
1
1
1
1
1
1
1
1
1
1
1
1
1
1
1
1
1
1
1
1
1
1
1
1
1
1
1
1
1
1
1
1
1
1
1
1
1
1
1
1
1
1
1
1
1
1
1
1
1
1
1
1
1
1
1
1
1
1
1
1
1
1
1
1
1
1
1
1
1
1
1
1
1
1
1
1
1
1
1
1
1
1
1
1
1
1
1
1
1
1
1
1
1
1
1
1
1
1
1
1
1
1
1
1
1
1
1
1
1
1
1
1
1
1
1
1
1
1
1
1
1
1
1
1
1
1
1
1
1
1
1
1
1
1
1
1
1
1
1
1
1
1
1
1
1
1
1
1
1
1
1
1
1
1
1
1
1
1
1
1
1
1
1
1
1
1
1
1
1
1
1
1
1
1
1
1
1
1
1
1
1
1
1
1
1
1
1
1
1
1
1
1
1
1
1
1
1
1
1
1
1
1
1
1
1
1
1
1
1
1
1
1
1
1
1
1
1
1
1
1
1
1
1
1
1
1
1
1
1
1
1
1
1
1
1
1
1
1
1
1
1
1
1
1
1
1
1
1
1
1
1
1
1
1
1
