# vtk DataFile Version 2.0
domain, Created by Gmsh 4.14.0 
ASCII
DATASET UNSTRUCTURED_GRID
POINTS 1875 double
0 0 0
1 0 0
1 1 0
0 1 0
0 0 0.1
1 0 0.1
1 1 0.1
0 1 0.1
0.08333333333333333 0 0
0.1666666666666667 0 0
0.25 0 0
0.3333333333333333 0 0
0.4166666666666666 0 0
0.5 0 0
0.5833333333333333 0 0
0.6666666666666666 0 0
0.75 0 0
0.8333333333333333 0 0
0.9166666666666666 0 0
0.04166666666666666 0 0
0.125 0 0
0.2083333333333333 0 0
0.2916666666666666 0 0
0.375 0 0
0.4583333333333333 0 0
0.5416666666666666 0 0
0.625 0 0
0.7083333333333333 0 0
0.7916666666666666 0 0
0.875 0 0
0.9583333333333333 0 0
1 0.08333333333333333 0
1 0.1666666666666667 0
1 0.25 0
1 0.3333333333333333 0
1 0.4166666666666666 0
1 0.5 0
1 0.5833333333333333 0
1 0.6666666666666666 0
1 0.75 0
1 0.8333333333333333 0
1 0.9166666666666666 0
1 0.04166666666666666 0
1 0.125 0
1 0.2083333333333333 0
1 0.2916666666666666 0
1 0.375 0
1 0.4583333333333333 0
1 0.5416666666666666 0
1 0.625 0
1 0.7083333333333333 0
1 0.7916666666666666 0
1 0.875 0
1 0.9583333333333333 0
0.9166666666666666 1 0
0.8333333333333334 1 0
0.75 1 0
0.6666666666666667 1 0
0.5833333333333334 1 0
0.5 1 0
0.4166666666666667 1 0
0.3333333333333334 1 0
0.25 1 0
0.1666666666666667 1 0
0.08333333333333337 1 0
0.9583333333333334 1 0
0.875 1 0
0.7916666666666667 1 0
0.7083333333333334 1 0
0.625 1 0
0.5416666666666667 1 0
0.4583333333333334 1 0
0.375 1 0
0.2916666666666667 1 0
0.2083333333333334 1 0
0.125 1 0
0.04166666666666674 1 0
0 0.9166666666666666 0
0 0.8333333333333334 0
0 0.75 0
0 0.6666666666666667 0
0 0.5833333333333334 0
0 0.5 0
0 0.4166666666666667 0
0 0.3333333333333334 0
0 0.25 0
0 0.1666666666666667 0
0 0.08333333333333337 0
0 0.9583333333333334 0
0 0.875 0
0 0.7916666666666667 0
0 0.7083333333333334 0
0 0.625 0
0 0.5416666666666667 0
0 0.4583333333333334 0
0 0.375 0
0 0.2916666666666667 0
0 0.2083333333333334 0
0 0.125 0
0 0.04166666666666674 0
0 0 0.05
1 0 0.05
0.08333333333333333 0 0.1
0.1666666666666667 0 0.1
0.25 0 0.1
0.3333333333333333 0 0.1
0.4166666666666666 0 0.1
0.5 0 0.1
0.5833333333333333 0 0.1
0.6666666666666666 0 0.1
0.75 0 0.1
0.8333333333333333 0 0.1
0.9166666666666666 0 0.1
0.04166666666666666 0 0.1
0.125 0 0.1
0.2083333333333333 0 0.1
0.2916666666666666 0 0.1
0.375 0 0.1
0.4583333333333333 0 0.1
0.5416666666666666 0 0.1
0.625 0 0.1
0.7083333333333333 0 0.1
0.7916666666666666 0 0.1
0.875 0 0.1
0.9583333333333333 0 0.1
1 1 0.05
1 0.08333333333333333 0.1
1 0.1666666666666667 0.1
1 0.25 0.1
1 0.3333333333333333 0.1
1 0.4166666666666666 0.1
1 0.5 0.1
1 0.5833333333333333 0.1
1 0.6666666666666666 0.1
1 0.75 0.1
1 0.8333333333333333 0.1
1 0.9166666666666666 0.1
1 0.04166666666666666 0.1
1 0.125 0.1
1 0.2083333333333333 0.1
1 0.2916666666666666 0.1
1 0.375 0.1
1 0.4583333333333333 0.1
1 0.5416666666666666 0.1
1 0.625 0.1
1 0.7083333333333333 0.1
1 0.7916666666666666 0.1
1 0.875 0.1
1 0.9583333333333333 0.1
0 1 0.05
0.9166666666666666 1 0.1
0.8333333333333334 1 0.1
0.75 1 0.1
0.6666666666666667 1 0.1
0.5833333333333334 1 0.1
0.5 1 0.1
0.4166666666666667 1 0.1
0.3333333333333334 1 0.1
0.25 1 0.1
0.1666666666666667 1 0.1
0.08333333333333337 1 0.1
0.9583333333333334 1 0.1
0.875 1 0.1
0.7916666666666667 1 0.1
0.7083333333333334 1 0.1
0.625 1 0.1
0.5416666666666667 1 0.1
0.4583333333333334 1 0.1
0.375 1 0.1
0.2916666666666667 1 0.1
0.2083333333333334 1 0.1
0.125 1 0.1
0.04166666666666674 1 0.1
0 0.9166666666666666 0.1
0 0.8333333333333334 0.1
0 0.75 0.1
0 0.6666666666666667 0.1
0 0.5833333333333334 0.1
0 0.5 0.1
0 0.4166666666666667 0.1
0 0.3333333333333334 0.1
0 0.25 0.1
0 0.1666666666666667 0.1
0 0.08333333333333337 0.1
0 0.9583333333333334 0.1
0 0.875 0.1
0 0.7916666666666667 0.1
0 0.7083333333333334 0.1
0 0.625 0.1
0 0.5416666666666667 0.1
0 0.4583333333333334 0.1
0 0.375 0.1
0 0.2916666666666667 0.1
0 0.2083333333333334 0.1
0 0.125 0.1
0 0.04166666666666674 0.1
0.08333333333333337 0.08333333333333326 0
0.08333333333333337 0.1666666666666667 0
0.08333333333333343 0.2499999999999999 0
0.08333333333333326 0.3333333333333334 0
0.08333333333333337 0.4166666666666667 0
0.08333333333333337 0.5 0
0.08333333333333337 0.5833333333333334 0
0.08333333333333337 0.6666666666666667 0
0.08333333333333337 0.75 0
0.08333333333333337 0.8333333333333335 0
0.08333333333333337 0.9166666666666666 0
0.1666666666666666 0.08333333333333326 0
0.1666666666666666 0.1666666666666667 0
0.1666666666666667 0.2499999999999999 0
0.1666666666666666 0.3333333333333334 0
0.1666666666666667 0.4166666666666667 0
0.1666666666666667 0.5 0
0.1666666666666667 0.5833333333333334 0
0.1666666666666667 0.6666666666666667 0
0.1666666666666667 0.75 0
0.1666666666666667 0.8333333333333334 0
0.1666666666666668 0.9166666666666666 0
0.25 0.08333333333333331 0
0.2500000000000001 0.1666666666666667 0
0.25 0.25 0
0.25 0.3333333333333334 0
0.2500000000000001 0.4166666666666667 0
0.25 0.5 0
0.25 0.5833333333333334 0
0.25 0.6666666666666666 0
0.25 0.75 0
0.2499999999999999 0.8333333333333334 0
0.25 0.9166666666666665 0
0.3333333333333334 0.0833333333333332 0
0.3333333333333333 0.1666666666666667 0
0.3333333333333334 0.25 0
0.3333333333333333 0.3333333333333334 0
0.3333333333333333 0.4166666666666667 0
0.3333333333333334 0.5 0
0.3333333333333334 0.5833333333333334 0
0.3333333333333334 0.6666666666666666 0
0.3333333333333333 0.75 0
0.3333333333333334 0.8333333333333334 0
0.3333333333333334 0.9166666666666666 0
0.4166666666666666 0.08333333333333326 0
0.4166666666666666 0.1666666666666666 0
0.4166666666666666 0.2499999999999999 0
0.4166666666666667 0.3333333333333334 0
0.4166666666666666 0.4166666666666667 0
0.4166666666666667 0.5 0
0.4166666666666667 0.5833333333333333 0
0.4166666666666667 0.6666666666666666 0
0.4166666666666667 0.75 0
0.4166666666666667 0.8333333333333334 0
0.4166666666666667 0.9166666666666666 0
0.5 0.08333333333333331 0
0.5 0.1666666666666666 0
0.5 0.25 0
0.5 0.3333333333333334 0
0.5 0.4166666666666667 0
0.5 0.5 0
0.5 0.5833333333333333 0
0.5 0.6666666666666666 0
0.5 0.75 0
0.5 0.8333333333333334 0
0.5 0.9166666666666666 0
0.5833333333333333 0.08333333333333326 0
0.5833333333333333 0.1666666666666667 0
0.5833333333333333 0.25 0
0.5833333333333333 0.3333333333333334 0
0.5833333333333333 0.4166666666666667 0
0.5833333333333333 0.5 0
0.5833333333333333 0.5833333333333333 0
0.5833333333333334 0.6666666666666666 0
0.5833333333333333 0.75 0
0.5833333333333334 0.8333333333333334 0
0.5833333333333334 0.9166666666666666 0
0.6666666666666666 0.08333333333333326 0
0.6666666666666666 0.1666666666666666 0
0.6666666666666667 0.25 0
0.6666666666666666 0.3333333333333334 0
0.6666666666666666 0.4166666666666666 0
0.6666666666666667 0.5 0
0.6666666666666666 0.5833333333333333 0
0.6666666666666666 0.6666666666666666 0
0.6666666666666666 0.75 0
0.6666666666666666 0.8333333333333334 0
0.6666666666666667 0.9166666666666666 0
0.75 0.08333333333333326 0
0.75 0.1666666666666667 0
0.75 0.2499999999999999 0
0.75 0.3333333333333334 0
0.75 0.4166666666666666 0
0.75 0.5 0
0.75 0.5833333333333333 0
0.75 0.6666666666666666 0
0.75 0.75 0
0.75 0.8333333333333333 0
0.75 0.9166666666666666 0
0.8333333333333333 0.08333333333333326 0
0.8333333333333333 0.1666666666666666 0
0.8333333333333333 0.25 0
0.8333333333333333 0.3333333333333333 0
0.8333333333333333 0.4166666666666666 0
0.8333333333333335 0.5 0
0.8333333333333334 0.5833333333333333 0
0.8333333333333334 0.6666666666666666 0
0.8333333333333334 0.75 0
0.8333333333333334 0.8333333333333333 0
0.8333333333333334 0.9166666666666666 0
0.9166666666666666 0.08333333333333326 0
0.9166666666666666 0.1666666666666666 0
0.9166666666666667 0.2499999999999999 0
0.9166666666666667 0.3333333333333333 0
0.9166666666666665 0.4166666666666666 0
0.9166666666666666 0.5 0
0.9166666666666666 0.5833333333333333 0
0.9166666666666666 0.6666666666666666 0
0.9166666666666666 0.75 0
0.9166666666666666 0.8333333333333333 0
0.9166666666666667 0.9166666666666666 0
0.08333333333333337 0.04166666666666663 0
0.04166666666666669 0.08333333333333331 0
0.04166666666666674 0.04166666666666674 0
0.08333333333333337 0.125 0
0.04166666666666669 0.1666666666666667 0
0.04166666666666669 0.125 0
0.08333333333333337 0.2083333333333334 0
0.04166666666666674 0.25 0
0.04166666666666674 0.2083333333333334 0
0.08333333333333337 0.2916666666666667 0
0.04166666666666663 0.3333333333333334 0
0.04166666666666669 0.2916666666666667 0
0.08333333333333331 0.3750000000000001 0
0.04166666666666669 0.4166666666666667 0
0.04166666666666669 0.3750000000000001 0
0.08333333333333337 0.4583333333333334 0
0.04166666666666669 0.5 0
0.04166666666666669 0.4583333333333334 0
0.08333333333333337 0.5416666666666667 0
0.04166666666666669 0.5833333333333334 0
0.04166666666666669 0.5416666666666667 0
0.08333333333333337 0.625 0
0.04166666666666669 0.6666666666666667 0
0.04166666666666669 0.625 0
0.08333333333333337 0.7083333333333334 0
0.04166666666666669 0.75 0
0.04166666666666669 0.7083333333333334 0
0.08333333333333337 0.7916666666666667 0
0.04166666666666669 0.8333333333333334 0
0.04166666666666669 0.7916666666666666 0
0.08333333333333337 0.875 0
0.04166666666666669 0.9166666666666666 0
0.04166666666666669 0.875 0
0.08333333333333337 0.9583333333333333 0
0.04166666666666674 0.9583333333333333 0
0.1666666666666666 0.04166666666666663 0
0.125 0.08333333333333326 0
0.125 0.04166666666666663 0
0.1666666666666666 0.125 0
0.125 0.1666666666666667 0
0.125 0.125 0
0.1666666666666667 0.2083333333333334 0
0.1250000000000001 0.2499999999999999 0
0.125 0.2083333333333334 0
0.1666666666666667 0.2916666666666667 0
0.1249999999999999 0.3333333333333334 0
0.125 0.2916666666666667 0
0.1666666666666667 0.3750000000000001 0
0.1250000000000001 0.4166666666666667 0
0.125 0.3750000000000001 0
0.1666666666666667 0.4583333333333334 0
0.1250000000000001 0.5 0
0.125 0.4583333333333334 0
0.1666666666666667 0.5416666666666667 0
0.1250000000000001 0.5833333333333334 0
0.125 0.5416666666666667 0
0.1666666666666667 0.625 0
0.1250000000000001 0.6666666666666667 0
0.125 0.625 0
[...]
CELL_DATA 288
SCALARS CellEntityIds int 1
LOOKUP_TABLE default
1
1
1
1
1
1
1
1
1
1
1
1
1
1
1
1
1
1
1
1
1
1
1
1
1
1
1
1
1
1
1
1
1
1
1
1
1
1
1
1
1
1
1
1
1
1
1
1
1
1
1
1
1
1
1
1
1
1
1
1
1
1
1
1
1
1
1
1
1
1
1
1
1
1
1
1
1
1
1
1
1
1
1
1
1
1
1
1
1
1
1
1
1
1
1
1
1
1
1
1
1
1
1
1
1
1
1
1
1
1
1
1
1
1
1
1
1
1
1
1
1
1
1
1
1
1
1
1
1
1
1
1
1
1
1
1
1
1
1
1
1
1
1
1
1
1
1
1
1
1
1
1
1
1
1
1
1
1
1
1
1
1
1
1
1
1
1
1
1
1
1
1
1
1
1
1
1
1
1
1
1
1
1
1
1
1
1
1
1
1
1
1
1
1
1
1
1
1
1
1
1
1
1
1
1
1
1
1
1
1
1
1
1
1
1
1
1
1
1
1
1
1
1
1
1
1
1
1
1
1
1
1
1
1
1
1
1
1
1
1
1
1
1
1
1
1
1
1
1
1
1
1
1
1
1
1
1
1
1
1
1
1
1
1
1
1
1
1
1
1
1
1
1
1
1
1
1
1
1
1
1
1
1
1
1
1
1
1
