# vtk DataFile Version 2.0
domain, Created by Gmsh 4.14.0 
ASCII
DATASET UNSTRUCTURED_GRID
POINTS 147 double
0 0 0
1 0 0
1 1 0
0 1 0
0 0 0.1
1 0 0.1
1 1 0.1
0 1 0.1
0.3333333333333333 0 0
0.6666666666666666 0 0
0.1666666666666667 0 0
0.5 0 0
0.8333333333333333 0 0
1 0.3333333333333333 0
1 0.6666666666666666 0
1 0.1666666666666667 0
1 0.5 0
1 0.8333333333333333 0
0.6666666666666667 1 0
0.3333333333333334 1 0
0.8333333333333334 1 0
0.5 1 0
0.1666666666666667 1 0
0 0.6666666666666667 0
0 0.3333333333333334 0
0 0.8333333333333334 0
0 0.5 0
0 0.1666666666666667 0
0 0 0.05
1 0 0.05
0.3333333333333333 0 0.1
0.6666666666666666 0 0.1
0.1666666666666667 0 0.1
0.5 0 0.1
0.8333333333333333 0 0.1
1 1 0.05
1 0.3333333333333333 0.1
1 0.6666666666666666 0.1
1 0.1666666666666667 0.1
1 0.5 0.1
1 0.8333333333333333 0.1
0 1 0.05
0.6666666666666667 1 0.1
0.3333333333333334 1 0.1
0.8333333333333334 1 0.1
0.5 1 0.1
0.1666666666666667 1 0.1
0 0.6666666666666667 0.1
0 0.3333333333333334 0.1
0 0.8333333333333334 0.1
0 0.5 0.1
0 0.1666666666666667 0.1
0.3333333333333334 0.3333333333333334 0
0.3333333333333334 0.6666666666666667 0
0.6666666666666666 0.3333333333333333 0
0.6666666666666666 0.6666666666666666 0
0.3333333333333334 0.1666666666666667 0
0.1666666666666667 0.3333333333333334 0
0.1666666666666667 0.1666666666666666 0
0.3333333333333334 0.5 0
0.1666666666666667 0.6666666666666667 0
0.1666666666666667 0.5 0
0.3333333333333334 0.8333333333333334 0
0.1666666666666667 0.8333333333333334 0
0.6666666666666666 0.1666666666666666 0
0.5 0.3333333333333334 0
0.5 0.1666666666666667 0
0.6666666666666666 0.5 0
0.5 0.6666666666666666 0
0.5 0.5 0
0.6666666666666666 0.8333333333333333 0
0.5 0.8333333333333334 0
0.8333333333333333 0.3333333333333333 0
0.8333333333333333 0.1666666666666666 0
0.8333333333333333 0.6666666666666666 0
0.8333333333333334 0.5 0
0.8333333333333333 0.8333333333333333 0
0.3333333333333333 0 0.05
0.1666666666666667 0 0.05
0.6666666666666666 0 0.05
0.5 0 0.05
0.8333333333333333 0 0.05
1 0.3333333333333333 0.05
1 0.1666666666666667 0.05
1 0.6666666666666666 0.05
1 0.5 0.05
1 0.8333333333333333 0.05
0.6666666666666667 1 0.05
0.8333333333333334 1 0.05
0.3333333333333334 1 0.05
0.5 1 0.05
0.1666666666666667 1 0.05
0 0.6666666666666667 0.05
0 0.8333333333333334 0.05
0 0.3333333333333334 0.05
0 0.5 0.05
0 0.1666666666666667 0.05
0.3333333333333334 0.3333333333333334 0.1
0.3333333333333334 0.6666666666666667 0.1
0.6666666666666666 0.3333333333333333 0.1
0.6666666666666666 0.6666666666666666 0.1
0.3333333333333334 0.1666666666666667 0.1
0.1666666666666667 0.3333333333333334 0.1
0.1666666666666667 0.1666666666666666 0.1
0.3333333333333334 0.5 0.1
0.1666666666666667 0.6666666666666667 0.1
0.1666666666666667 0.5 0.1
0.3333333333333334 0.8333333333333334 0.1
0.1666666666666667 0.8333333333333334 0.1
0.6666666666666666 0.1666666666666666 0.1
0.5 0.3333333333333334 0.1
0.5 0.1666666666666667 0.1
0.6666666666666666 0.5 0.1
0.5 0.6666666666666667 0.1
0.5 0.5 0.1
0.6666666666666666 0.8333333333333333 0.1
0.5 0.8333333333333334 0.1
0.8333333333333333 0.3333333333333333 0.1
0.8333333333333333 0.1666666666666666 0.1
0.8333333333333333 0.6666666666666666 0.1
0.8333333333333334 0.5 0.1
0.8333333333333333 0.8333333333333333 0.1
0.3333333333333334 0.3333333333333334 0.05
0.3333333333333334 0.1666666666666667 0.05
0.1666666666666667 0.3333333333333334 0.05
0.1666666666666667 0.1666666666666667 0.05
0.3333333333333334 0.6666666666666667 0.05
0.3333333333333334 0.5 0.05
0.1666666666666667 0.6666666666666667 0.05
0.1666666666666666 0.5000000000000001 0.05
0.3333333333333334 0.8333333333333333 0.05
0.1666666666666667 0.8333333333333336 0.05
0.6666666666666666 0.3333333333333333 0.05
0.6666666666666666 0.1666666666666666 0.05
0.5 0.3333333333333334 0.05
0.5 0.1666666666666667 0.05
0.6666666666666666 0.6666666666666666 0.05
0.6666666666666666 0.5 0.05
0.5 0.6666666666666667 0.05
0.5 0.5000000000000001 0.05
0.6666666666666667 0.8333333333333333 0.05
0.5 0.8333333333333335 0.05
0.8333333333333333 0.3333333333333333 0.05
0.8333333333333333 0.1666666666666667 0.05
0.8333333333333333 0.6666666666666666 0.05
0.8333333333333335 0.5 0.05
0.8333333333333333 0.8333333333333331 0.05

CELLS 18 342
9 4 30 97 48 32 101 102 51 103
9 48 97 98 47 102 104 105 50 106
9 47 98 43 7 105 107 46 49 108
9 30 31 99 97 33 109 110 101 111
9 97 99 100 98 110 112 113 104 114
9 98 100 42 43 113 115 45 107 116
9 31 5 36 99 34 38 117 109 118
9 99 36 37 100 117 39 119 112 120
9 100 37 6 42 119 40 44 115 121
27 0 8 52 24 4 30 97 48 10 56 57 27 32 101 102 51 28 77 122 94 96 123 78 124 58 103 125
27 24 52 53 23 48 97 98 47 57 59 60 26 102 104 105 50 94 122 126 92 95 127 124 128 61 106 129
27 23 53 19 3 47 98 43 7 60 62 22 25 105 107 46 49 92 126 89 41 93 130 128 91 63 108 131
27 8 9 54 52 30 31 99 97 11 64 65 56 33 109 110 101 77 79 132 122 123 133 80 134 66 111 135
27 52 54 55 53 97 99 100 98 65 67 68 59 110 112 113 104 122 132 136 126 127 137 134 138 69 114 139
27 53 55 18 19 98 100 42 43 68 70 21 62 113 115 45 107 126 136 87 89 130 140 138 90 71 116 141
27 9 1 13 54 31 5 36 99 12 15 72 64 34 38 117 109 79 29 82 132 133 83 81 142 73 118 143
27 54 13 14 55 99 36 37 100 72 16 74 67 117 39 119 112 132 82 84 136 137 85 142 144 75 120 145
27 55 14 2 18 100 37 6 42 74 17 20 70 119 40 44 115 136 84 35 87 140 86 144 88 76 121 146

CELL_TYPES 18
28
28
28
28
28
28
28
28
28
29
29
29
29
29
29
29
29
29

CELL_DATA 18
SCALARS CellEntityIds int 1
LOOKUP_TABLE default
1
1
1
1
1
1
1
1
1
1
1
1
1
1
1
1
1
1
