# vtk DataFile Version 2.0
domain, Created by Gmsh 4.14.0 
ASCII
DATASET UNSTRUCTURED_GRID
POINTS 32 double
0 0 0
1 0 0
1 1 0
0 1 0
0 0 0.1
1 0 0.1
1 1 0.1
0 1 0.1
0.3333333333333333 0 0
0.6666666666666666 0 0
1 0.3333333333333333 0
1 0.6666666666666666 0
0.6666666666666667 1 0
0.3333333333333334 1 0
0 0.6666666666666667 0
0 0.3333333333333334 0
0.3333333333333333 0 0.1
0.6666666666666666 0 0.1
1 0.3333333333333333 0.1
1 0.6666666666666666 0.1
0.6666666666666667 1 0.1
0.3333333333333334 1 0.1
0 0.6666666666666667 0.1
0 0.3333333333333334 0.1
0.3333333333333334 0.3333333333333334 0
0.3333333333333334 0.6666666666666667 0
0.6666666666666666 0.3333333333333333 0
0.6666666666666666 0.6666666666666666 0
0.3333333333333334 0.3333333333333334 0.1
0.3333333333333334 0.6666666666666667 0.1
0.6666666666666666 0.3333333333333333 0.1
0.6666666666666666 0.6666666666666666 0.1

CELLS 18 126
4 4 16 28 23
4 23 28 29 22
4 22 29 21 7
4 16 17 30 28
4 28 30 31 29
4 29 31 20 21
4 17 5 18 30
4 30 18 19 31
4 31 19 6 20
8 0 8 24 15 4 16 28 23
8 15 24 25 14 23 28 29 22
8 14 25 13 3 22 29 21 7
8 8 9 26 24 16 17 30 28
8 24 26 27 25 28 30 31 29
8 25 27 12 13 29 31 20 21
8 9 1 10 26 17 5 18 30
8 26 10 11 27 30 18 19 31
8 27 11 2 12 31 19 6 20

CELL_TYPES 18
9
9
9
9
9
9
9
9
9
12
12
12
12
12
12
12
12
12

CELL_DATA 18
SCALARS CellEntityIds int 1
LOOKUP_TABLE default
1
1
1
1
1
1
1
1
1
1
1
1
1
1
1
1
1
1
