# vtk DataFile Version 2.0
domain, Created by Gmsh 4.14.0 
ASCII
DATASET UNSTRUCTURED_GRID
POINTS 507 double
0 0 0
1 0 0
1 1 0
0 1 0
0 0 0.1
1 0 0.1
1 1 0.1
0 1 0.1
0.1666666666666667 0 0
0.3333333333333333 0 0
0.5 0 0
0.6666666666666666 0 0
0.8333333333333333 0 0
0.08333333333333333 0 0
0.25 0 0
0.4166666666666666 0 0
0.5833333333333333 0 0
0.75 0 0
0.9166666666666666 0 0
1 0.1666666666666667 0
1 0.3333333333333333 0
1 0.5 0
1 0.6666666666666666 0
1 0.8333333333333333 0
1 0.08333333333333333 0
1 0.25 0
1 0.4166666666666666 0
1 0.5833333333333333 0
1 0.75 0
1 0.9166666666666666 0
0.8333333333333334 1 0
0.6666666666666667 1 0
0.5 1 0
0.3333333333333334 1 0
0.1666666666666667 1 0
0.9166666666666666 1 0
0.75 1 0
0.5833333333333334 1 0
0.4166666666666667 1 0
0.25 1 0
0.08333333333333337 1 0
0 0.8333333333333334 0
0 0.6666666666666667 0
0 0.5 0
0 0.3333333333333334 0
0 0.1666666666666667 0
0 0.9166666666666666 0
0 0.75 0
0 0.5833333333333334 0
0 0.4166666666666667 0
0 0.25 0
0 0.08333333333333337 0
0 0 0.05
1 0 0.05
0.1666666666666667 0 0.1
0.3333333333333333 0 0.1
0.5 0 0.1
0.6666666666666666 0 0.1
0.8333333333333333 0 0.1
0.08333333333333333 0 0.1
0.25 0 0.1
0.4166666666666666 0 0.1
0.5833333333333333 0 0.1
0.75 0 0.1
0.9166666666666666 0 0.1
1 1 0.05
1 0.1666666666666667 0.1
1 0.3333333333333333 0.1
1 0.5 0.1
1 0.6666666666666666 0.1
1 0.8333333333333333 0.1
1 0.08333333333333333 0.1
1 0.25 0.1
1 0.4166666666666666 0.1
1 0.5833333333333333 0.1
1 0.75 0.1
1 0.9166666666666666 0.1
0 1 0.05
0.8333333333333334 1 0.1
0.6666666666666667 1 0.1
0.5 1 0.1
0.3333333333333334 1 0.1
0.1666666666666667 1 0.1
0.9166666666666666 1 0.1
0.75 1 0.1
0.5833333333333334 1 0.1
0.4166666666666667 1 0.1
0.25 1 0.1
0.08333333333333337 1 0.1
0 0.8333333333333334 0.1
0 0.6666666666666667 0.1
0 0.5 0.1
0 0.3333333333333334 0.1
0 0.1666666666666667 0.1
0 0.9166666666666666 0.1
0 0.75 0.1
0 0.5833333333333334 0.1
0 0.4166666666666667 0.1
0 0.25 0.1
0 0.08333333333333337 0.1
0.1666666666666666 0.1666666666666667 0
0.1666666666666666 0.3333333333333334 0
0.1666666666666667 0.5 0
0.1666666666666667 0.6666666666666667 0
0.1666666666666667 0.8333333333333334 0
0.3333333333333334 0.1666666666666666 0
0.3333333333333334 0.3333333333333333 0
0.3333333333333334 0.5 0
0.3333333333333334 0.6666666666666667 0
0.3333333333333334 0.8333333333333333 0
0.5 0.1666666666666666 0
0.5 0.3333333333333334 0
0.5 0.5 0
0.5 0.6666666666666666 0
0.5 0.8333333333333334 0
0.6666666666666666 0.1666666666666666 0
0.6666666666666667 0.3333333333333334 0
0.6666666666666666 0.5 0
0.6666666666666666 0.6666666666666666 0
0.6666666666666666 0.8333333333333334 0
0.8333333333333333 0.1666666666666666 0
0.8333333333333334 0.3333333333333334 0
0.8333333333333334 0.5 0
0.8333333333333334 0.6666666666666666 0
0.8333333333333334 0.8333333333333333 0
0.1666666666666666 0.08333333333333337 0
0.08333333333333331 0.1666666666666667 0
0.08333333333333331 0.08333333333333337 0
0.1666666666666666 0.2500000000000001 0
0.08333333333333331 0.3333333333333334 0
0.08333333333333331 0.25 0
0.1666666666666667 0.4166666666666667 0
0.08333333333333337 0.5 0
0.08333333333333331 0.4166666666666667 0
0.1666666666666667 0.5833333333333334 0
0.08333333333333337 0.6666666666666667 0
0.08333333333333337 0.5833333333333334 0
0.1666666666666667 0.75 0
0.08333333333333337 0.8333333333333334 0
0.08333333333333337 0.75 0
0.1666666666666667 0.9166666666666667 0
0.08333333333333337 0.9166666666666667 0
0.3333333333333333 0.08333333333333331 0
0.25 0.1666666666666667 0
0.25 0.08333333333333337 0
0.3333333333333334 0.25 0
0.25 0.3333333333333333 0
0.25 0.25 0
0.3333333333333334 0.4166666666666666 0
0.2500000000000001 0.5 0
0.25 0.4166666666666666 0
0.3333333333333334 0.5833333333333334 0
0.2500000000000001 0.6666666666666667 0
0.2500000000000001 0.5833333333333334 0
0.3333333333333334 0.75 0
0.2500000000000001 0.8333333333333334 0
0.2500000000000001 0.75 0
0.3333333333333334 0.9166666666666666 0
0.25 0.9166666666666666 0
0.5 0.08333333333333331 0
0.4166666666666667 0.1666666666666666 0
0.4166666666666666 0.08333333333333337 0
0.5 0.25 0
0.4166666666666667 0.3333333333333334 0
0.4166666666666667 0.25 0
0.5 0.4166666666666667 0
0.4166666666666667 0.5 0
0.4166666666666667 0.4166666666666667 0
0.5 0.5833333333333333 0
0.4166666666666667 0.6666666666666666 0
0.4166666666666667 0.5833333333333334 0
0.5 0.75 0
0.4166666666666667 0.8333333333333334 0
0.4166666666666667 0.75 0
0.5 0.9166666666666667 0
0.4166666666666667 0.9166666666666666 0
0.6666666666666666 0.08333333333333331 0
0.5833333333333333 0.1666666666666666 0
0.5833333333333333 0.08333333333333337 0
0.6666666666666666 0.25 0
0.5833333333333334 0.3333333333333334 0
0.5833333333333334 0.25 0
0.6666666666666666 0.4166666666666667 0
0.5833333333333333 0.5 0
0.5833333333333334 0.4166666666666667 0
0.6666666666666666 0.5833333333333333 0
0.5833333333333333 0.6666666666666666 0
0.5833333333333333 0.5833333333333333 0
0.6666666666666666 0.75 0
0.5833333333333334 0.8333333333333334 0
0.5833333333333333 0.75 0
0.6666666666666667 0.9166666666666667 0
0.5833333333333334 0.9166666666666667 0
0.8333333333333333 0.08333333333333331 0
0.75 0.1666666666666666 0
0.75 0.08333333333333337 0
0.8333333333333333 0.25 0
0.75 0.3333333333333334 0
0.75 0.25 0
0.8333333333333334 0.4166666666666667 0
0.75 0.5 0
0.75 0.4166666666666667 0
0.8333333333333334 0.5833333333333333 0
0.75 0.6666666666666666 0
0.75 0.5833333333333333 0
0.8333333333333334 0.75 0
0.75 0.8333333333333333 0
0.75 0.75 0
0.8333333333333334 0.9166666666666666 0
0.75 0.9166666666666667 0
0.9166666666666666 0.1666666666666666 0
0.9166666666666666 0.08333333333333337 0
0.9166666666666667 0.3333333333333333 0
0.9166666666666666 0.25 0
0.9166666666666667 0.5 0
0.9166666666666666 0.4166666666666666 0
0.9166666666666667 0.6666666666666666 0
0.9166666666666666 0.5833333333333333 0
0.9166666666666667 0.8333333333333333 0
0.9166666666666666 0.75 0
0.9166666666666666 0.9166666666666666 0
0.1666666666666667 0 0.05
0.08333333333333333 0 0.05
0.3333333333333333 0 0.05
0.25 0 0.05
0.5 0 0.05
0.4166666666666666 0 0.05
0.6666666666666666 0 0.05
0.5833333333333333 0 0.05
0.8333333333333333 0 0.05
0.75 0 0.05
0.9166666666666667 0 0.05
1 0.1666666666666667 0.05
1 0.08333333333333333 0.05
1 0.3333333333333333 0.05
1 0.25 0.05
1 0.5 0.05
1 0.4166666666666666 0.05
1 0.6666666666666666 0.05
1 0.5833333333333333 0.05
1 0.8333333333333333 0.05
1 0.75 0.05
1 0.9166666666666667 0.05
0.8333333333333334 1 0.05
0.9166666666666665 1 0.05
0.6666666666666667 1 0.05
0.75 1 0.05
0.5 1 0.05
0.5833333333333334 1 0.05
0.3333333333333334 1 0.05
0.4166666666666667 1 0.05
0.1666666666666667 1 0.05
0.25 1 0.05
0.08333333333333337 1 0.05
0 0.8333333333333334 0.05
0 0.9166666666666665 0.05
0 0.6666666666666667 0.05
0 0.75 0.05
0 0.5 0.05
0 0.5833333333333334 0.05
0 0.3333333333333334 0.05
0 0.4166666666666667 0.05
0 0.1666666666666667 0.05
0 0.25 0.05
0 0.08333333333333337 0.05
0.1666666666666666 0.1666666666666667 0.1
0.1666666666666666 0.3333333333333334 0.1
0.1666666666666667 0.5 0.1
0.1666666666666667 0.6666666666666667 0.1
0.1666666666666667 0.8333333333333334 0.1
0.3333333333333334 0.1666666666666666 0.1
0.3333333333333334 0.3333333333333333 0.1
0.3333333333333334 0.5 0.1
0.3333333333333334 0.6666666666666667 0.1
0.3333333333333334 0.8333333333333333 0.1
0.5 0.1666666666666666 0.1
0.5 0.3333333333333334 0.1
0.5 0.5 0.1
0.5 0.6666666666666666 0.1
0.5 0.8333333333333334 0.1
0.6666666666666666 0.1666666666666666 0.1
0.6666666666666667 0.3333333333333334 0.1
0.6666666666666666 0.5 0.1
0.6666666666666666 0.6666666666666666 0.1
0.6666666666666666 0.8333333333333334 0.1
0.8333333333333333 0.1666666666666666 0.1
0.8333333333333334 0.3333333333333334 0.1
0.8333333333333334 0.5 0.1
0.8333333333333334 0.6666666666666666 0.1
0.8333333333333334 0.8333333333333333 0.1
0.1666666666666666 0.08333333333333337 0.1
0.08333333333333331 0.1666666666666667 0.1
0.08333333333333331 0.08333333333333337 0.1
0.1666666666666666 0.2500000000000001 0.1
0.08333333333333331 0.3333333333333334 0.1
0.08333333333333331 0.25 0.1
0.1666666666666667 0.4166666666666667 0.1
0.08333333333333337 0.5 0.1
0.08333333333333331 0.4166666666666667 0.1
0.1666666666666667 0.5833333333333334 0.1
0.08333333333333337 0.6666666666666667 0.1
0.08333333333333337 0.5833333333333334 0.1
0.1666666666666667 0.75 0.1
0.08333333333333337 0.8333333333333334 0.1
0.08333333333333337 0.7500000000000001 0.1
0.1666666666666667 0.9166666666666667 0.1
0.08333333333333337 0.9166666666666667 0.1
0.3333333333333334 0.08333333333333331 0.1
0.25 0.1666666666666667 0.1
0.25 0.08333333333333337 0.1
0.3333333333333334 0.25 0.1
0.25 0.3333333333333334 0.1
0.25 0.25 0.1
0.3333333333333334 0.4166666666666666 0.1
0.2500000000000001 0.5 0.1
0.25 0.4166666666666667 0.1
0.3333333333333334 0.5833333333333334 0.1
0.2500000000000001 0.6666666666666667 0.1
0.2500000000000001 0.5833333333333334 0.1
0.3333333333333334 0.75 0.1
0.2500000000000001 0.8333333333333333 0.1
0.2500000000000001 0.75 0.1
0.3333333333333334 0.9166666666666666 0.1
0.25 0.9166666666666667 0.1
0.5 0.08333333333333331 0.1
0.4166666666666667 0.1666666666666666 0.1
0.4166666666666666 0.08333333333333337 0.1
0.5 0.25 0.1
0.4166666666666667 0.3333333333333334 0.1
0.4166666666666667 0.25 0.1
0.5 0.4166666666666667 0.1
0.4166666666666667 0.5 0.1
0.4166666666666667 0.4166666666666667 0.1
0.5 0.5833333333333333 0.1
0.4166666666666667 0.6666666666666667 0.1
0.4166666666666667 0.5833333333333334 0.1
0.5 0.75 0.1
0.4166666666666667 0.8333333333333333 0.1
0.4166666666666667 0.75 0.1
0.5 0.9166666666666667 0.1
0.4166666666666667 0.9166666666666667 0.1
0.6666666666666666 0.08333333333333331 0.1
0.5833333333333333 0.1666666666666666 0.1
0.5833333333333333 0.08333333333333337 0.1
0.6666666666666667 0.25 0.1
0.5833333333333334 0.3333333333333334 0.1
0.5833333333333334 0.25 0.1
0.6666666666666667 0.4166666666666667 0.1
0.5833333333333333 0.5 0.1
0.5833333333333334 0.4166666666666667 0.1
0.6666666666666666 0.5833333333333333 0.1
0.5833333333333333 0.6666666666666666 0.1
0.5833333333333333 0.5833333333333333 0.1
0.6666666666666666 0.75 0.1
0.5833333333333333 0.8333333333333334 0.1
0.5833333333333333 0.75 0.1
0.6666666666666666 0.9166666666666667 0.1
0.5833333333333334 0.9166666666666667 0.1
0.8333333333333333 0.08333333333333331 0.1
0.75 0.1666666666666666 0.1
0.75 0.08333333333333337 0.1
0.8333333333333333 0.25 0.1
0.75 0.3333333333333334 0.1
0.75 0.25 0.1
0.8333333333333334 0.4166666666666667 0.1
0.75 0.5 0.1
0.75 0.4166666666666667 0.1
0.8333333333333334 0.5833333333333333 0.1
0.75 0.6666666666666666 0.1
0.75 0.5833333333333333 0.1
0.8333333333333334 0.75 0.1
0.75 0.8333333333333333 0.1
0.75 0.75 0.1
0.8333333333333334 0.9166666666666666 0.1
0.75 0.9166666666666667 0.1
0.9166666666666666 0.1666666666666666 0.1
0.9166666666666666 0.08333333333333337 0.1
0.9166666666666667 0.3333333333333334 0.1
0.9166666666666666 0.25 0.1
0.9166666666666667 0.5 0.1
0.9166666666666666 0.4166666666666666 0.1
0.9166666666666667 0.6666666666666666 0.1
0.9166666666666666 0.5833333333333333 0.1
0.9166666666666667 0.8333333333333333 0.1
0.9166666666666666 0.75 0.1
0.9166666666666666 0.9166666666666666 0.1
0.1666666666666666 0.1666666666666667 0.05
0.1666666666666666 0.08333333333333337 0.05
0.08333333333333331 0.1666666666666667 0.05
0.08333333333333331 0.08333333333333337 0.05
0.1666666666666666 0.3333333333333334 0.05
0.1666666666666666 0.2500000000000001 0.05
0.08333333333333331 0.3333333333333334 0.05
0.08333333333333331 0.2500000000000001 0.05
0.1666666666666667 0.5 0.05
0.1666666666666667 0.4166666666666666 0.05
0.08333333333333337 0.5 0.05
0.08333333333333331 0.4166666666666667 0.05
0.1666666666666667 0.6666666666666667 0.05
0.1666666666666667 0.5833333333333334 0.05
0.08333333333333337 0.6666666666666667 0.05
0.08333333333333337 0.5833333333333335 0.05
0.1666666666666667 0.8333333333333334 0.05
0.1666666666666667 0.75 0.05
0.08333333333333337 0.8333333333333334 0.05
0.08333333333333337 0.7499999999999999 0.05
0.1666666666666667 0.9166666666666667 0.05
0.08333333333333337 0.9166666666666667 0.05
0.3333333333333334 0.1666666666666666 0.05
0.3333333333333334 0.08333333333333331 0.05
0.25 0.1666666666666667 0.05
0.25 0.08333333333333337 0.05
0.3333333333333334 0.3333333333333333 0.05
0.3333333333333334 0.25 0.05
0.25 0.3333333333333334 0.05
0.25 0.2500000000000001 0.05
0.3333333333333334 0.5 0.05
0.3333333333333334 0.4166666666666666 0.05
0.2500000000000001 0.5 0.05
0.2499999999999999 0.4166666666666666 0.05
0.3333333333333334 0.6666666666666667 0.05
0.3333333333333334 0.5833333333333334 0.05
0.2500000000000001 0.6666666666666667 0.05
0.2500000000000001 0.5833333333333335 0.05
0.3333333333333334 0.8333333333333333 0.05
0.3333333333333334 0.75 0.05
0.2500000000000001 0.8333333333333334 0.05
0.2500000000000001 0.75 0.05
0.3333333333333334 0.9166666666666667 0.05
0.2500000000000001 0.9166666666666666 0.05
0.5 0.1666666666666666 0.05
0.5 0.08333333333333331 0.05
0.4166666666666667 0.1666666666666666 0.05
0.4166666666666666 0.08333333333333337 0.05
0.5 0.3333333333333334 0.05
0.5 0.25 0.05
0.4166666666666667 0.3333333333333334 0.05
0.4166666666666669 0.25 0.05
0.5 0.5 0.05
0.5 0.4166666666666666 0.05
0.4166666666666667 0.5 0.05
0.4166666666666669 0.4166666666666667 0.05
0.5 0.6666666666666666 0.05
0.5 0.5833333333333333 0.05
0.4166666666666667 0.6666666666666667 0.05
0.4166666666666669 0.5833333333333331 0.05
0.5 0.8333333333333334 0.05
0.5 0.75 0.05
0.4166666666666667 0.8333333333333333 0.05
0.4166666666666669 0.75 0.05
0.5 0.9166666666666667 0.05
0.4166666666666669 0.9166666666666665 0.05
0.6666666666666666 0.1666666666666666 0.05
0.6666666666666666 0.08333333333333331 0.05
0.5833333333333333 0.1666666666666666 0.05
0.583333333333333 0.08333333333333337 0.05
0.6666666666666667 0.3333333333333334 0.05
0.6666666666666667 0.25 0.05
0.5833333333333334 0.3333333333333334 0.05
0.5833333333333334 0.25 0.05
0.6666666666666666 0.5 0.05
0.6666666666666666 0.4166666666666666 0.05
0.5833333333333333 0.5 0.05
0.5833333333333336 0.4166666666666667 0.05
0.6666666666666666 0.6666666666666666 0.05
0.6666666666666666 0.5833333333333333 0.05
0.5833333333333333 0.6666666666666666 0.05
0.583333333333333 0.5833333333333333 0.05
0.6666666666666666 0.8333333333333334 0.05
0.6666666666666666 0.75 0.05
0.5833333333333334 0.8333333333333334 0.05
0.5833333333333331 0.75 0.05
0.6666666666666667 0.9166666666666667 0.05
0.5833333333333335 0.9166666666666669 0.05
0.8333333333333333 0.1666666666666666 0.05
0.8333333333333333 0.08333333333333331 0.05
0.75 0.1666666666666666 0.05
0.7500000000000002 0.08333333333333337 0.05
0.8333333333333334 0.3333333333333334 0.05
0.8333333333333333 0.25 0.05
0.75 0.3333333333333334 0.05
0.75 0.25 0.05
0.8333333333333334 0.5 0.05
0.8333333333333334 0.4166666666666666 0.05
0.75 0.5 0.05
0.75 0.4166666666666667 0.05
0.8333333333333334 0.6666666666666666 0.05
0.8333333333333334 0.5833333333333333 0.05
0.75 0.6666666666666666 0.05
0.75 0.5833333333333333 0.05
0.8333333333333334 0.8333333333333333 0.05
0.8333333333333334 0.75 0.05
0.75 0.8333333333333333 0.05
0.75 0.7499999999999999 0.05
0.8333333333333334 0.9166666666666667 0.05
0.75 0.9166666666666667 0.05
0.9166666666666666 0.1666666666666666 0.05
0.9166666666666664 0.08333333333333337 0.05
0.9166666666666667 0.3333333333333334 0.05
0.9166666666666665 0.25 0.05
0.9166666666666667 0.5 0.05
0.9166666666666665 0.4166666666666666 0.05
0.9166666666666667 0.6666666666666666 0.05
0.9166666666666665 0.5833333333333333 0.05
0.9166666666666667 0.8333333333333333 0.05
0.9166666666666665 0.7500000000000001 0.05
0.9166666666666663 0.9166666666666665 0.05

CELLS 72 1368
9 4 54 265 93 59 290 291 99 292
9 93 265 266 92 291 293 294 98 295
9 92 266 267 91 294 296 297 97 298
9 91 267 268 90 297 299 300 96 301
9 90 268 269 89 300 302 303 95 304
9 89 269 82 7 303 305 88 94 306
9 54 55 270 265 60 307 308 290 309
9 265 270 271 266 308 310 311 293 312
9 266 271 272 267 311 313 314 296 315
9 267 272 273 268 314 316 317 299 318
9 268 273 274 269 317 319 320 302 321
9 269 274 81 82 320 322 87 305 323
9 55 56 275 270 61 324 325 307 326
9 270 275 276 271 325 327 328 310 329
9 271 276 277 272 328 330 331 313 332
9 272 277 278 273 331 333 334 316 335
9 273 278 279 274 334 336 337 319 338
9 274 279 80 81 337 339 86 322 340
9 56 57 280 275 62 341 342 324 343
9 275 280 281 276 342 344 345 327 346
9 276 281 282 277 345 347 348 330 349
9 277 282 283 278 348 350 351 333 352
9 278 283 284 279 351 353 354 336 355
9 279 284 79 80 354 356 85 339 357
9 57 58 285 280 63 358 359 341 360
9 280 285 286 281 359 361 362 344 363
9 281 286 287 282 362 364 365 347 366
9 282 287 288 283 365 367 368 350 369
9 283 288 289 284 368 370 371 353 372
9 284 289 78 79 371 373 84 356 374
9 58 5 66 285 64 71 375 358 376
9 285 66 67 286 375 72 377 361 378
9 286 67 68 287 377 73 379 364 380
9 287 68 69 288 379 74 381 367 382
9 288 69 70 289 381 75 383 370 384
9 289 70 6 78 383 76 83 373 385
27 0 8 100 45 4 54 265 93 13 125 126 51 59 290 291 99 52 221 386 262 264 387 222 388 127 292 389
27 45 100 101 44 93 265 266 92 126 128 129 50 291 293 294 98 262 386 390 260 263 391 388 392 130 295 393
27 44 101 102 43 92 266 267 91 129 131 132 49 294 296 297 97 260 390 394 258 261 395 392 396 133 298 397
27 43 102 103 42 91 267 268 90 132 134 135 48 297 299 300 96 258 394 398 256 259 399 396 400 136 301 401
27 42 103 104 41 90 268 269 89 135 137 138 47 300 302 303 95 256 398 402 254 257 403 400 404 139 304 405
27 41 104 34 3 89 269 82 7 138 140 40 46 303 305 88 94 254 402 251 77 255 406 404 253 141 306 407
27 8 9 105 100 54 55 270 265 14 142 143 125 60 307 308 290 221 223 408 386 387 409 224 410 144 309 411
27 100 105 106 101 265 270 271 266 143 145 146 128 308 310 311 293 386 408 412 390 391 413 410 414 147 312 415
27 101 106 107 102 266 271 272 267 146 148 149 131 311 313 314 296 390 412 416 394 395 417 414 418 150 315 419
27 102 107 108 103 267 272 273 268 149 151 152 134 314 316 317 299 394 416 420 398 399 421 418 422 153 318 423
27 103 108 109 104 268 273 274 269 152 154 155 137 317 319 320 302 398 420 424 402 403 425 422 426 156 321 427
27 104 109 33 34 269 274 81 82 155 157 39 140 320 322 87 305 402 424 249 251 406 428 426 252 158 323 429
27 9 10 110 105 55 56 275 270 15 159 160 142 61 324 325 307 223 225 430 408 409 431 226 432 161 326 433
27 105 110 111 106 270 275 276 271 160 162 163 145 325 327 328 310 408 430 434 412 413 435 432 436 164 329 437
27 106 111 112 107 271 276 277 272 163 165 166 148 328 330 331 313 412 434 438 416 417 439 436 440 167 332 441
27 107 112 113 108 272 277 278 273 166 168 169 151 331 333 334 316 416 438 442 420 421 443 440 444 170 335 445
27 108 113 114 109 273 278 279 274 169 171 172 154 334 336 337 319 420 442 446 424 425 447 444 448 173 338 449
27 109 114 32 33 274 279 80 81 172 174 38 157 337 339 86 322 424 446 247 249 428 450 448 250 175 340 451
27 10 11 115 110 56 57 280 275 16 176 177 159 62 341 342 324 225 227 452 430 431 453 228 454 178 343 455
27 110 115 116 111 275 280 281 276 177 179 180 162 342 344 345 327 430 452 456 434 435 457 454 458 181 346 459
27 111 116 117 112 276 281 282 277 180 182 183 165 345 347 348 330 434 456 460 438 439 461 458 462 184 349 463
27 112 117 118 113 277 282 283 278 183 185 186 168 348 350 351 333 438 460 464 442 443 465 462 466 187 352 467
27 113 118 119 114 278 283 284 279 186 188 189 171 351 353 354 336 442 464 468 446 447 469 466 470 190 355 471
27 114 119 31 32 279 284 79 80 189 191 37 174 354 356 85 339 446 468 245 247 450 472 470 248 192 357 473
27 11 12 120 115 57 58 285 280 17 193 194 176 63 358 359 341 227 229 474 452 453 475 230 476 195 360 477
27 115 120 121 116 280 285 286 281 194 196 197 179 359 361 362 344 452 474 478 456 457 479 476 480 198 363 481
27 116 121 122 117 281 286 287 282 197 199 200 182 362 364 365 347 456 478 482 460 461 483 480 484 201 366 485
27 117 122 123 118 282 287 288 283 200 202 203 185 365 367 368 350 460 482 486 464 465 487 484 488 204 369 489
27 118 123 124 119 283 288 289 284 203 205 206 188 368 370 371 353 464 486 490 468 469 491 488 492 207 372 493
27 119 124 30 31 284 289 78 79 206 208 36 191 371 373 84 356 468 490 243 245 472 494 492 246 209 374 495
27 12 1 19 120 58 5 66 285 18 24 210 193 64 71 375 358 229 53 232 474 475 233 231 496 211 376 497
27 120 19 20 121 285 66 67 286 210 25 212 196 375 72 377 361 474 232 234 478 479 235 496 498 213 378 499
27 121 20 21 122 286 67 68 287 212 26 214 199 377 73 379 364 478 234 236 482 483 237 498 500 215 380 501
27 122 21 22 123 287 68 69 288 214 27 216 202 379 74 381 367 482 236 238 486 487 239 500 502 217 382 503
27 123 22 23 124 288 69 70 289 216 28 218 205 381 75 383 370 486 238 240 490 491 241 502 504 219 384 505
27 124 23 2 30 289 70 6 78 218 29 35 208 383 76 83 373 490 240 65 243 494 242 504 244 220 385 506

CELL_TYPES 72
28
28
28
28
28
28
28
28
28
28
28
28
28
28
28
28
28
28
28
28
28
28
28
28
28
28
28
28
28
28
28
28
28
28
28
28
29
29
29
29
29
29
29
29
29
29
29
29
29
29
29
29
29
29
29
29
29
29
29
29
29
29
29
29
29
29
29
29
29
29
29
29

CELL_DATA 72
SCALARS CellEntityIds int 1
LOOKUP_TABLE default
1
1
1
1
1
1
1
1
1
1
1
1
1
1
1
1
1
1
1
1
1
1
1
1
1
1
1
1
1
1
1
1
1
1
1
1
1
1
1
1
1
1
1
1
1
1
1
1
1
1
1
1
1
1
1
1
1
1
1
1
1
1
1
1
1
1
1
1
1
1
1
1
