# vtk DataFile Version 2.0
domain, Created by Gmsh 4.14.0 
ASCII
DATASET UNSTRUCTURED_GRID
POINTS 98 double
0 0 0
1 0 0
1 1 0
0 1 0
0 0 0.1
1 0 0.1
1 1 0.1
0 1 0.1
0.1666666666666667 0 0
0.3333333333333333 0 0
0.5 0 0
0.6666666666666666 0 0
0.8333333333333333 0 0
1 0.1666666666666667 0
1 0.3333333333333333 0
1 0.5 0
1 0.6666666666666666 0
1 0.8333333333333333 0
0.8333333333333334 1 0
0.6666666666666667 1 0
0.5 1 0
0.3333333333333334 1 0
0.1666666666666667 1 0
0 0.8333333333333334 0
0 0.6666666666666667 0
0 0.5 0
0 0.3333333333333334 0
0 0.1666666666666667 0
0.1666666666666667 0 0.1
0.3333333333333333 0 0.1
0.5 0 0.1
0.6666666666666666 0 0.1
0.8333333333333333 0 0.1
1 0.1666666666666667 0.1
1 0.3333333333333333 0.1
1 0.5 0.1
1 0.6666666666666666 0.1
1 0.8333333333333333 0.1
0.8333333333333334 1 0.1
0.6666666666666667 1 0.1
0.5 1 0.1
0.3333333333333334 1 0.1
0.1666666666666667 1 0.1
0 0.8333333333333334 0.1
0 0.6666666666666667 0.1
0 0.5 0.1
0 0.3333333333333334 0.1
0 0.1666666666666667 0.1
0.1666666666666666 0.1666666666666667 0
0.1666666666666666 0.3333333333333334 0
0.1666666666666667 0.5 0
0.1666666666666667 0.6666666666666667 0
0.1666666666666667 0.8333333333333334 0
0.3333333333333334 0.1666666666666666 0
0.3333333333333334 0.3333333333333333 0
0.3333333333333334 0.5 0
0.3333333333333334 0.6666666666666667 0
0.3333333333333334 0.8333333333333333 0
0.5 0.1666666666666666 0
0.5 0.3333333333333334 0
0.5 0.5 0
0.5 0.6666666666666666 0
0.5 0.8333333333333334 0
0.6666666666666666 0.1666666666666666 0
0.6666666666666667 0.3333333333333334 0
0.6666666666666666 0.5 0
0.6666666666666666 0.6666666666666666 0
0.6666666666666666 0.8333333333333334 0
0.8333333333333333 0.1666666666666666 0
0.8333333333333334 0.3333333333333334 0
0.8333333333333334 0.5 0
0.8333333333333334 0.6666666666666666 0
0.8333333333333334 0.8333333333333333 0
0.1666666666666666 0.1666666666666667 0.1
0.1666666666666666 0.3333333333333334 0.1
0.1666666666666667 0.5 0.1
0.1666666666666667 0.6666666666666667 0.1
0.1666666666666667 0.8333333333333334 0.1
0.3333333333333334 0.1666666666666666 0.1
0.3333333333333334 0.3333333333333333 0.1
0.3333333333333334 0.5 0.1
0.3333333333333334 0.6666666666666667 0.1
0.3333333333333334 0.8333333333333333 0.1
0.5 0.1666666666666666 0.1
0.5 0.3333333333333334 0.1
0.5 0.5 0.1
0.5 0.6666666666666666 0.1
0.5 0.8333333333333334 0.1
0.6666666666666666 0.1666666666666666 0.1
0.6666666666666667 0.3333333333333334 0.1
0.6666666666666666 0.5 0.1
0.6666666666666666 0.6666666666666666 0.1
0.6666666666666666 0.8333333333333334 0.1
0.8333333333333333 0.1666666666666666 0.1
0.8333333333333334 0.3333333333333334 0.1
0.8333333333333334 0.5 0.1
0.8333333333333334 0.6666666666666666 0.1
0.8333333333333334 0.8333333333333333 0.1

CELLS 72 504
4 4 28 73 47
4 47 73 74 46
4 46 74 75 45
4 45 75 76 44
4 44 76 77 43
4 43 77 42 7
4 28 29 78 73
4 73 78 79 74
4 74 79 80 75
4 75 80 81 76
4 76 81 82 77
4 77 82 41 42
4 29 30 83 78
4 78 83 84 79
4 79 84 85 80
4 80 85 86 81
4 81 86 87 82
4 82 87 40 41
4 30 31 88 83
4 83 88 89 84
4 84 89 90 85
4 85 90 91 86
4 86 91 92 87
4 87 92 39 40
4 31 32 93 88
4 88 93 94 89
4 89 94 95 90
4 90 95 96 91
4 91 96 97 92
4 92 97 38 39
4 32 5 33 93
4 93 33 34 94
4 94 34 35 95
4 95 35 36 96
4 96 36 37 97
4 97 37 6 38
8 0 8 48 27 4 28 73 47
8 27 48 49 26 47 73 74 46
8 26 49 50 25 46 74 75 45
8 25 50 51 24 45 75 76 44
8 24 51 52 23 44 76 77 43
8 23 52 22 3 43 77 42 7
8 8 9 53 48 28 29 78 73
8 48 53 54 49 73 78 79 74
8 49 54 55 50 74 79 80 75
8 50 55 56 51 75 80 81 76
8 51 56 57 52 76 81 82 77
8 52 57 21 22 77 82 41 42
8 9 10 58 53 29 30 83 78
8 53 58 59 54 78 83 84 79
8 54 59 60 55 79 84 85 80
8 55 60 61 56 80 85 86 81
8 56 61 62 57 81 86 87 82
8 57 62 20 21 82 87 40 41
8 10 11 63 58 30 31 88 83
8 58 63 64 59 83 88 89 84
8 59 64 65 60 84 89 90 85
8 60 65 66 61 85 90 91 86
8 61 66 67 62 86 91 92 87
8 62 67 19 20 87 92 39 40
8 11 12 68 63 31 32 93 88
8 63 68 69 64 88 93 94 89
8 64 69 70 65 89 94 95 90
8 65 70 71 66 90 95 96 91
8 66 71 72 67 91 96 97 92
8 67 72 18 19 92 97 38 39
8 12 1 13 68 32 5 33 93
8 68 13 14 69 93 33 34 94
8 69 14 15 70 94 34 35 95
8 70 15 16 71 95 35 36 96
8 71 16 17 72 96 36 37 97
8 72 17 2 18 97 37 6 38

CELL_TYPES 72
9
9
9
9
9
9
9
9
9
9
9
9
9
9
9
9
9
9
9
9
9
9
9
9
9
9
9
9
9
9
9
9
9
9
9
9
12
12
12
12
12
12
12
12
12
12
12
12
12
12
12
12
12
12
12
12
12
12
12
12
12
12
12
12
12
12
12
12
12
12
12
12

CELL_DATA 72
SCALARS CellEntityIds int 1
LOOKUP_TABLE default
1
1
1
1
1
1
1
1
1
1
1
1
1
1
1
1
1
1
1
1
1
1
1
1
1
1
1
1
1
1
1
1
1
1
1
1
1
1
1
1
1
1
1
1
1
1
1
1
1
1
1
1
1
1
1
1
1
1
1
1
1
1
1
1
1
1
1
1
1
1
1
1
