# vtk DataFile Version 2.0
domain, Created by Gmsh 4.14.0 
ASCII
DATASET UNSTRUCTURED_GRID
POINTS 243 double
0 0 0.1
1 0 0.1
1 1 0.1
0 1 0.1
0 0 0.2
1 0 0.2
1 1 0.2
0 1 0.2
0.25 0 0.1
0.5 0 0.1
0.75 0 0.1
0.125 0 0.1
0.375 0 0.1
0.625 0 0.1
0.875 0 0.1
1 0.25 0.1
1 0.5 0.1
1 0.75 0.1
1 0.125 0.1
1 0.375 0.1
1 0.625 0.1
1 0.875 0.1
0.75 1 0.1
0.5 1 0.1
0.25 1 0.1
0.875 1 0.1
0.625 1 0.1
0.375 1 0.1
0.125 1 0.1
0 0.75 0.1
0 0.5 0.1
0 0.25 0.1
0 0.875 0.1
0 0.625 0.1
0 0.375 0.1
0 0.125 0.1
0 0 0.15
1 0 0.15
0.25 0 0.2
0.5 0 0.2
0.75 0 0.2
0.125 0 0.2
0.375 0 0.2
0.625 0 0.2
0.875 0 0.2
1 1 0.15
1 0.25 0.2
1 0.5 0.2
1 0.75 0.2
1 0.125 0.2
1 0.375 0.2
1 0.625 0.2
1 0.875 0.2
0 1 0.15
0.75 1 0.2
0.5 1 0.2
0.25 1 0.2
0.875 1 0.2
0.625 1 0.2
0.375 1 0.2
0.125 1 0.2
0 0.75 0.2
0 0.5 0.2
0 0.25 0.2
0 0.875 0.2
0 0.625 0.2
0 0.375 0.2
0 0.125 0.2
0.25 0.25 0.09999999999999999
0.25 0.5 0.09999999999999999
0.25 0.75 0.09999999999999999
0.5 0.25 0.09999999999999999
0.5 0.5 0.09999999999999999
0.5 0.75 0.09999999999999999
0.75 0.25 0.09999999999999999
0.75 0.5 0.09999999999999999
0.75 0.75 0.09999999999999999
0.25 0.125 0.09999999999999999
0.125 0.25 0.09999999999999999
0.125 0.125 0.09999999999999999
0.25 0.375 0.09999999999999999
0.125 0.5 0.09999999999999999
0.125 0.375 0.09999999999999999
0.25 0.625 0.09999999999999999
0.125 0.75 0.09999999999999999
0.125 0.625 0.09999999999999999
0.25 0.875 0.09999999999999999
0.125 0.875 0.09999999999999999
0.5 0.125 0.09999999999999999
0.375 0.25 0.09999999999999999
0.375 0.125 0.09999999999999999
0.5 0.375 0.09999999999999999
0.375 0.5 0.09999999999999999
0.375 0.375 0.09999999999999999
0.5 0.625 0.09999999999999999
0.375 0.75 0.09999999999999999
0.375 0.625 0.09999999999999999
0.5 0.875 0.09999999999999999
0.375 0.875 0.09999999999999999
0.75 0.125 0.09999999999999999
0.625 0.25 0.09999999999999999
0.625 0.125 0.09999999999999999
0.75 0.375 0.09999999999999999
0.625 0.5 0.09999999999999999
0.625 0.375 0.09999999999999999
0.75 0.625 0.09999999999999999
0.625 0.75 0.09999999999999999
0.625 0.625 0.09999999999999999
0.75 0.875 0.09999999999999999
0.625 0.875 0.09999999999999999
0.875 0.25 0.09999999999999999
0.875 0.125 0.09999999999999999
0.875 0.5 0.09999999999999999
0.875 0.375 0.09999999999999999
0.875 0.75 0.09999999999999999
0.875 0.625 0.09999999999999999
0.875 0.875 0.09999999999999999
0.25 0 0.15
0.125 0 0.15
0.5 0 0.15
0.375 0 0.15
0.75 0 0.15
0.625 0 0.15
0.875 0 0.15
1 0.25 0.15
1 0.125 0.15
1 0.5 0.15
1 0.375 0.15
1 0.75 0.15
1 0.625 0.15
1 0.875 0.15
0.75 1 0.15
0.875 1 0.15
0.5 1 0.15
0.625 1 0.15
0.25 1 0.15
0.375 1 0.15
0.125 1 0.15
0 0.75 0.15
0 0.875 0.15
0 0.5 0.15
0 0.625 0.15
0 0.25 0.15
0 0.375 0.15
0 0.125 0.15
0.25 0.25 0.2
0.25 0.5 0.2
0.25 0.75 0.2
0.5 0.25 0.2
0.5 0.5 0.2
0.5 0.75 0.2
0.75 0.25 0.2
0.75 0.5 0.2
0.75 0.75 0.2
0.25 0.125 0.2
0.125 0.25 0.2
0.125 0.125 0.2
0.25 0.375 0.2
0.125 0.5 0.2
0.125 0.375 0.2
0.25 0.625 0.2
0.125 0.75 0.2
0.125 0.625 0.2
0.25 0.875 0.2
0.125 0.875 0.2
0.5 0.125 0.2
0.375 0.25 0.2
0.375 0.125 0.2
0.5 0.375 0.2
0.375 0.5 0.2
0.375 0.375 0.2
0.5 0.625 0.2
0.375 0.75 0.2
0.375 0.625 0.2
0.5 0.875 0.2
0.375 0.875 0.2
0.75 0.125 0.2
0.625 0.25 0.2
0.625 0.125 0.2
0.75 0.375 0.2
0.625 0.5 0.2
0.625 0.375 0.2
0.75 0.625 0.2
0.625 0.75 0.2
0.625 0.625 0.2
0.75 0.875 0.2
0.625 0.875 0.2
0.875 0.25 0.2
0.875 0.125 0.2
0.875 0.5 0.2
0.875 0.375 0.2
0.875 0.75 0.2
0.875 0.625 0.2
0.875 0.875 0.2
0.25 0.25 0.15
0.25 0.125 0.15
0.125 0.25 0.15
0.125 0.125 0.15
0.25 0.5 0.15
0.25 0.375 0.15
0.125 0.5 0.15
0.125 0.375 0.15
0.25 0.75 0.15
0.25 0.625 0.15
0.125 0.75 0.15
0.125 0.625 0.15
0.25 0.875 0.15
0.125 0.875 0.15
0.5 0.25 0.15
0.5 0.125 0.15
0.375 0.25 0.15
0.375 0.125 0.15
0.5 0.5 0.15
0.5 0.375 0.15
0.375 0.5 0.15
0.375 0.375 0.15
0.5 0.75 0.15
0.5 0.625 0.15
0.375 0.75 0.15
0.375 0.625 0.15
0.5 0.875 0.15
0.375 0.875 0.15
0.75 0.25 0.15
0.75 0.125 0.15
0.625 0.25 0.15
0.625 0.125 0.15
0.75 0.5 0.15
0.75 0.375 0.15
0.625 0.5 0.15
0.625 0.375 0.15
0.75 0.75 0.15
0.75 0.625 0.15
0.625 0.75 0.15
0.625 0.625 0.15
0.75 0.875 0.15
0.625 0.875 0.15
0.875 0.25 0.15
0.875 0.125 0.15
0.875 0.5 0.15
0.875 0.375 0.15
0.875 0.75 0.15
0.875 0.625 0.15
0.875 0.875 0.15

CELLS 32 608
9 0 8 68 31 11 77 78 35 79
9 31 68 69 30 78 80 81 34 82
9 30 69 70 29 81 83 84 33 85
9 29 70 24 3 84 86 28 32 87
9 8 9 71 68 12 88 89 77 90
9 68 71 72 69 89 91 92 80 93
9 69 72 73 70 92 94 95 83 96
9 70 73 23 24 95 97 27 86 98
9 9 10 74 71 13 99 100 88 101
9 71 74 75 72 100 102 103 91 104
9 72 75 76 73 103 105 106 94 107
9 73 76 22 23 106 108 26 97 109
9 10 1 15 74 14 18 110 99 111
9 74 15 16 75 110 19 112 102 113
9 75 16 17 76 112 20 114 105 115
9 76 17 2 22 114 21 25 108 116
27 0 8 68 31 4 38 145 63 11 77 78 35 41 154 155 67 36 117 194 142 144 195 118 196 79 156 197
27 31 68 69 30 63 145 146 62 78 80 81 34 155 157 158 66 142 194 198 140 143 199 196 200 82 159 201
27 30 69 70 29 62 146 147 61 81 83 84 33 158 160 161 65 140 198 202 138 141 203 200 204 85 162 205
27 29 70 24 3 61 147 56 7 84 86 28 32 161 163 60 64 138 202 135 53 139 206 204 137 87 164 207
27 8 9 71 68 38 39 148 145 12 88 89 77 42 165 166 154 117 119 208 194 195 209 120 210 90 167 211
27 68 71 72 69 145 148 149 146 89 91 92 80 166 168 169 157 194 208 212 198 199 213 210 214 93 170 215
27 69 72 73 70 146 149 150 147 92 94 95 83 169 171 172 160 198 212 216 202 203 217 214 218 96 173 219
27 70 73 23 24 147 150 55 56 95 97 27 86 172 174 59 163 202 216 133 135 206 220 218 136 98 175 221
27 9 10 74 71 39 40 151 148 13 99 100 88 43 176 177 165 119 121 222 208 209 223 122 224 101 178 225
27 71 74 75 72 148 151 152 149 100 102 103 91 177 179 180 168 208 222 226 212 213 227 224 228 104 181 229
27 72 75 76 73 149 152 153 150 103 105 106 94 180 182 183 171 212 226 230 216 217 231 228 232 107 184 233
27 73 76 22 23 150 153 54 55 106 108 26 97 183 185 58 174 216 230 131 133 220 234 232 134 109 186 235
27 10 1 15 74 40 5 46 151 14 18 110 99 44 49 187 176 121 37 124 222 223 125 123 236 111 188 237
27 74 15 16 75 151 46 47 152 110 19 112 102 187 50 189 179 222 124 126 226 227 127 236 238 113 190 239
27 75 16 17 76 152 47 48 153 112 20 114 105 189 51 191 182 226 126 128 230 231 129 238 240 115 192 241
27 76 17 2 22 153 48 6 54 114 21 25 108 191 52 57 185 230 128 45 131 234 130 240 132 116 193 242

CELL_TYPES 32
28
28
28
28
28
28
28
28
28
28
28
28
28
28
28
28
29
29
29
29
29
29
29
29
29
29
29
29
29
29
29
29

CELL_DATA 32
SCALARS CellEntityIds int 1
LOOKUP_TABLE default
1
1
1
1
1
1
1
1
1
1
1
1
1
1
1
1
1
1
1
1
1
1
1
1
1
1
1
1
1
1
1
1
