# vtk DataFile Version 2.0
domain, Created by Gmsh 4.14.0 
ASCII
DATASET UNSTRUCTURED_GRID
POINTS 162 double
0 0 0.1
1 0 0.1
1 1 0.1
0 1 0.1
0 0 0.2
1 0 0.2
1 1 0.2
0 1 0.2
0.125 0 0.1
0.25 0 0.1
0.375 0 0.1
0.5 0 0.1
0.625 0 0.1
0.75 0 0.1
0.875 0 0.1
1 0.125 0.1
1 0.25 0.1
1 0.375 0.1
1 0.5 0.1
1 0.625 0.1
1 0.75 0.1
1 0.875 0.1
0.875 1 0.1
0.75 1 0.1
0.625 1 0.1
0.5 1 0.1
0.375 1 0.1
0.25 1 0.1
0.125 1 0.1
0 0.875 0.1
0 0.75 0.1
0 0.625 0.1
0 0.5 0.1
0 0.375 0.1
0 0.25 0.1
0 0.125 0.1
0.125 0 0.2
0.25 0 0.2
0.375 0 0.2
0.5 0 0.2
0.625 0 0.2
0.75 0 0.2
0.875 0 0.2
1 0.125 0.2
1 0.25 0.2
1 0.375 0.2
1 0.5 0.2
1 0.625 0.2
1 0.75 0.2
1 0.875 0.2
0.875 1 0.2
0.75 1 0.2
0.625 1 0.2
0.5 1 0.2
0.375 1 0.2
0.25 1 0.2
0.125 1 0.2
0 0.875 0.2
0 0.75 0.2
0 0.625 0.2
0 0.5 0.2
0 0.375 0.2
0 0.25 0.2
0 0.125 0.2
0.125 0.125 0.09999999999999999
0.125 0.25 0.09999999999999999
0.125 0.375 0.09999999999999999
0.125 0.5 0.09999999999999999
0.125 0.625 0.09999999999999999
0.125 0.75 0.09999999999999999
0.125 0.875 0.09999999999999999
0.25 0.125 0.09999999999999999
0.25 0.25 0.09999999999999999
0.25 0.375 0.09999999999999999
0.25 0.5 0.09999999999999999
0.25 0.625 0.09999999999999999
0.25 0.75 0.09999999999999999
0.25 0.875 0.09999999999999999
0.375 0.125 0.09999999999999999
0.375 0.25 0.09999999999999999
0.375 0.375 0.09999999999999999
0.375 0.5 0.09999999999999999
0.375 0.625 0.09999999999999999
0.375 0.75 0.09999999999999999
0.375 0.875 0.09999999999999999
0.5 0.125 0.09999999999999999
0.5 0.25 0.09999999999999999
0.5 0.375 0.09999999999999999
0.5 0.5 0.09999999999999999
0.5 0.625 0.09999999999999999
0.5 0.75 0.09999999999999999
0.5 0.875 0.09999999999999999
0.625 0.125 0.09999999999999999
0.625 0.25 0.09999999999999999
0.625 0.375 0.09999999999999999
0.625 0.5 0.09999999999999999
0.625 0.625 0.09999999999999999
0.625 0.75 0.09999999999999999
0.625 0.875 0.09999999999999999
0.75 0.125 0.09999999999999999
0.75 0.25 0.09999999999999999
0.75 0.375 0.09999999999999999
0.75 0.5 0.09999999999999999
0.75 0.625 0.09999999999999999
0.75 0.75 0.09999999999999999
0.75 0.875 0.09999999999999999
0.875 0.125 0.09999999999999999
0.875 0.25 0.09999999999999999
0.875 0.375 0.09999999999999999
0.875 0.5 0.09999999999999999
0.875 0.625 0.09999999999999999
0.875 0.75 0.09999999999999999
0.875 0.875 0.09999999999999999
0.125 0.125 0.2
0.125 0.25 0.2
0.125 0.375 0.2
0.125 0.5 0.2
0.125 0.625 0.2
0.125 0.75 0.2
0.125 0.875 0.2
0.25 0.125 0.2
0.25 0.25 0.2
0.25 0.375 0.2
0.25 0.5 0.2
0.25 0.625 0.2
0.25 0.75 0.2
0.25 0.875 0.2
0.375 0.125 0.2
0.375 0.25 0.2
0.375 0.375 0.2
0.375 0.5 0.2
0.375 0.625 0.2
0.375 0.75 0.2
0.375 0.875 0.2
0.5 0.125 0.2
0.5 0.25 0.2
0.5 0.375 0.2
0.5 0.5 0.2
0.5 0.625 0.2
0.5 0.75 0.2
0.5 0.875 0.2
0.625 0.125 0.2
0.625 0.25 0.2
0.625 0.375 0.2
0.625 0.5 0.2
0.625 0.625 0.2
0.625 0.75 0.2
0.625 0.875 0.2
0.75 0.125 0.2
0.75 0.25 0.2
0.75 0.375 0.2
0.75 0.5 0.2
0.75 0.625 0.2
0.75 0.75 0.2
0.75 0.875 0.2
0.875 0.125 0.2
0.875 0.25 0.2
0.875 0.375 0.2
0.875 0.5 0.2
0.875 0.625 0.2
0.875 0.75 0.2
0.875 0.875 0.2

CELLS 128 896
4 0 8 64 35
4 35 64 65 34
4 34 65 66 33
4 33 66 67 32
4 32 67 68 31
4 31 68 69 30
4 30 69 70 29
4 29 70 28 3
4 8 9 71 64
4 64 71 72 65
4 65 72 73 66
4 66 73 74 67
4 67 74 75 68
4 68 75 76 69
4 69 76 77 70
4 70 77 27 28
4 9 10 78 71
4 71 78 79 72
4 72 79 80 73
4 73 80 81 74
4 74 81 82 75
4 75 82 83 76
4 76 83 84 77
4 77 84 26 27
4 10 11 85 78
4 78 85 86 79
4 79 86 87 80
4 80 87 88 81
4 81 88 89 82
4 82 89 90 83
4 83 90 91 84
4 84 91 25 26
4 11 12 92 85
4 85 92 93 86
4 86 93 94 87
4 87 94 95 88
4 88 95 96 89
4 89 96 97 90
4 90 97 98 91
4 91 98 24 25
4 12 13 99 92
4 92 99 100 93
4 93 100 101 94
4 94 101 102 95
4 95 102 103 96
4 96 103 104 97
4 97 104 105 98
4 98 105 23 24
4 13 14 106 99
4 99 106 107 100
4 100 107 108 101
4 101 108 109 102
4 102 109 110 103
4 103 110 111 104
4 104 111 112 105
4 105 112 22 23
4 14 1 15 106
4 106 15 16 107
4 107 16 17 108
4 108 17 18 109
4 109 18 19 110
4 110 19 20 111
4 111 20 21 112
4 112 21 2 22
8 0 8 64 35 4 36 113 63
8 35 64 65 34 63 113 114 62
8 34 65 66 33 62 114 115 61
8 33 66 67 32 61 115 116 60
8 32 67 68 31 60 116 117 59
8 31 68 69 30 59 117 118 58
8 30 69 70 29 58 118 119 57
8 29 70 28 3 57 119 56 7
8 8 9 71 64 36 37 120 113
8 64 71 72 65 113 120 121 114
8 65 72 73 66 114 121 122 115
8 66 73 74 67 115 122 123 116
8 67 74 75 68 116 123 124 117
8 68 75 76 69 117 124 125 118
8 69 76 77 70 118 125 126 119
8 70 77 27 28 119 126 55 56
8 9 10 78 71 37 38 127 120
8 71 78 79 72 120 127 128 121
8 72 79 80 73 121 128 129 122
8 73 80 81 74 122 129 130 123
8 74 81 82 75 123 130 131 124
8 75 82 83 76 124 131 132 125
8 76 83 84 77 125 132 133 126
8 77 84 26 27 126 133 54 55
8 10 11 85 78 38 39 134 127
8 78 85 86 79 127 134 135 128
8 79 86 87 80 128 135 136 129
8 80 87 88 81 129 136 137 130
8 81 88 89 82 130 137 138 131
8 82 89 90 83 131 138 139 132
8 83 90 91 84 132 139 140 133
8 84 91 25 26 133 140 53 54
8 11 12 92 85 39 40 141 134
8 85 92 93 86 134 141 142 135
8 86 93 94 87 135 142 143 136
8 87 94 95 88 136 143 144 137
8 88 95 96 89 137 144 145 138
8 89 96 97 90 138 145 146 139
8 90 97 98 91 139 146 147 140
8 91 98 24 25 140 147 52 53
8 12 13 99 92 40 41 148 141
8 92 99 100 93 141 148 149 142
8 93 100 101 94 142 149 150 143
8 94 101 102 95 143 150 151 144
8 95 102 103 96 144 151 152 145
8 96 103 104 97 145 152 153 146
8 97 104 105 98 146 153 154 147
8 98 105 23 24 147 154 51 52
8 13 14 106 99 41 42 155 148
8 99 106 107 100 148 155 156 149
8 100 107 108 101 149 156 157 150
8 101 108 109 102 150 157 158 151
8 102 109 110 103 151 158 159 152
8 103 110 111 104 152 159 160 153
8 104 111 112 105 153 160 161 154
8 105 112 22 23 154 161 50 51
8 14 1 15 106 42 5 43 155
8 106 15 16 107 155 43 44 156
8 107 16 17 108 156 44 45 157
8 108 17 18 109 157 45 46 158
8 109 18 19 110 158 46 47 159
8 110 19 20 111 159 47 48 160
8 111 20 21 112 160 48 49 161
8 112 21 2 22 161 49 6 50

CELL_TYPES 128
9
9
9
9
9
9
9
9
9
9
9
9
9
9
9
9
9
9
9
9
9
9
9
9
9
9
9
9
9
9
9
9
9
9
9
9
9
9
9
9
9
9
9
9
9
9
9
9
9
9
9
9
9
9
9
9
9
9
9
9
9
9
9
9
12
12
12
12
12
12
12
12
12
12
12
12
12
12
12
12
12
12
12
12
12
12
12
12
12
12
12
12
12
12
12
12
12
12
12
12
12
12
12
12
12
12
12
12
12
12
12
12
12
12
12
12
12
12
12
12
12
12
12
12
12
12
12
12

CELL_DATA 128
SCALARS CellEntityIds int 1
LOOKUP_TABLE default
1
1
1
1
1
1
1
1
1
1
1
1
1
1
1
1
1
1
1
1
1
1
1
1
1
1
1
1
1
1
1
1
1
1
1
1
1
1
1
1
1
1
1
1
1
1
1
1
1
1
1
1
1
1
1
1
1
1
1
1
1
1
1
1
1
1
1
1
1
1
1
1
1
1
1
1
1
1
1
1
1
1
1
1
1
1
1
1
1
1
1
1
1
1
1
1
1
1
1
1
1
1
1
1
1
1
1
1
1
1
1
1
1
1
1
1
1
1
1
1
1
1
1
1
1
1
1
1
