# vtk DataFile Version 2.0
domain, Created by Gmsh 4.14.0 
ASCII
DATASET UNSTRUCTURED_GRID
POINTS 50 double
0 0 0.1
1 0 0.1
1 1 0.1
0 1 0.1
0 0 0.2
1 0 0.2
1 1 0.2
0 1 0.2
0.25 0 0.1
0.5 0 0.1
0.75 0 0.1
1 0.25 0.1
1 0.5 0.1
1 0.75 0.1
0.75 1 0.1
0.5 1 0.1
0.25 1 0.1
0 0.75 0.1
0 0.5 0.1
0 0.25 0.1
0.25 0 0.2
0.5 0 0.2
0.75 0 0.2
1 0.25 0.2
1 0.5 0.2
1 0.75 0.2
0.75 1 0.2
0.5 1 0.2
0.25 1 0.2
0 0.75 0.2
0 0.5 0.2
0 0.25 0.2
0.25 0.25 0.09999999999999999
0.25 0.5 0.09999999999999999
0.25 0.75 0.09999999999999999
0.5 0.25 0.09999999999999999
0.5 0.5 0.09999999999999999
0.5 0.75 0.09999999999999999
0.75 0.25 0.09999999999999999
0.75 0.5 0.09999999999999999
0.75 0.75 0.09999999999999999
0.25 0.25 0.2
0.25 0.5 0.2
0.25 0.75 0.2
0.5 0.25 0.2
0.5 0.5 0.2
0.5 0.75 0.2
0.75 0.25 0.2
0.75 0.5 0.2
0.75 0.75 0.2

CELLS 32 224
4 0 8 32 19
4 19 32 33 18
4 18 33 34 17
4 17 34 16 3
4 8 9 35 32
4 32 35 36 33
4 33 36 37 34
4 34 37 15 16
4 9 10 38 35
4 35 38 39 36
4 36 39 40 37
4 37 40 14 15
4 10 1 11 38
4 38 11 12 39
4 39 12 13 40
4 40 13 2 14
8 0 8 32 19 4 20 41 31
8 19 32 33 18 31 41 42 30
8 18 33 34 17 30 42 43 29
8 17 34 16 3 29 43 28 7
8 8 9 35 32 20 21 44 41
8 32 35 36 33 41 44 45 42
8 33 36 37 34 42 45 46 43
8 34 37 15 16 43 46 27 28
8 9 10 38 35 21 22 47 44
8 35 38 39 36 44 47 48 45
8 36 39 40 37 45 48 49 46
8 37 40 14 15 46 49 26 27
8 10 1 11 38 22 5 23 47
8 38 11 12 39 47 23 24 48
8 39 12 13 40 48 24 25 49
8 40 13 2 14 49 25 6 26

CELL_TYPES 32
9
9
9
9
9
9
9
9
9
9
9
9
9
9
9
9
12
12
12
12
12
12
12
12
12
12
12
12
12
12
12
12

CELL_DATA 32
SCALARS CellEntityIds int 1
LOOKUP_TABLE default
1
1
1
1
1
1
1
1
1
1
1
1
1
1
1
1
1
1
1
1
1
1
1
1
1
1
1
1
1
1
1
1
