# vtk DataFile Version 2.0
domain, Created by Gmsh 4.14.0 
ASCII
DATASET UNSTRUCTURED_GRID
POINTS 75 double
0 0 0.1
1 0 0.1
1 1 0.1
0 1 0.1
0 0 0.2
1 0 0.2
1 1 0.2
0 1 0.2
0.5 0 0.1
0.25 0 0.1
0.75 0 0.1
1 0.5 0.1
1 0.25 0.1
1 0.75 0.1
0.5 1 0.1
0.75 1 0.1
0.25 1 0.1
0 0.5 0.1
0 0.75 0.1
0 0.25 0.1
0 0 0.15
1 0 0.15
0.5 0 0.2
0.25 0 0.2
0.75 0 0.2
1 1 0.15
1 0.5 0.2
1 0.25 0.2
1 0.75 0.2
0 1 0.15
0.5 1 0.2
0.75 1 0.2
0.25 1 0.2
0 0.5 0.2
0 0.75 0.2
0 0.25 0.2
0.5 0.5 0.09999999999999999
0.5 0.25 0.09999999999999999
0.25 0.5 0.09999999999999999
0.25 0.25 0.09999999999999999
0.5 0.75 0.09999999999999999
0.25 0.75 0.09999999999999999
0.75 0.5 0.09999999999999999
0.75 0.25 0.09999999999999999
0.75 0.75 0.09999999999999999
0.5 0 0.15
0.25 0 0.15
0.75 0 0.15
1 0.5 0.15
1 0.25 0.15
1 0.75 0.15
0.5 1 0.15
0.75 1 0.15
0.25 1 0.15
0 0.5 0.15
0 0.75 0.15
0 0.25 0.15
0.5 0.5 0.2
0.5 0.25 0.2
0.25 0.5 0.2
0.25 0.25 0.2
0.5 0.75 0.2
0.25 0.75 0.2
0.75 0.5 0.2
0.75 0.25 0.2
0.75 0.75 0.2
0.5 0.5 0.15
0.5 0.25 0.15
0.25 0.5 0.15
0.25 0.25 0.15
0.5 0.75 0.15
0.25 0.75 0.15
0.75 0.5 0.15
0.75 0.25 0.15
0.75 0.75 0.15

CELLS 8 152
9 0 8 36 17 9 37 38 19 39
9 17 36 14 3 38 40 16 18 41
9 8 1 11 36 10 12 42 37 43
9 36 11 2 14 42 13 15 40 44
27 0 8 36 17 4 22 57 33 9 37 38 19 23 58 59 35 20 45 66 54 56 67 46 68 39 60 69
27 17 36 14 3 33 57 30 7 38 40 16 18 59 61 32 34 54 66 51 29 55 70 68 53 41 62 71
27 8 1 11 36 22 5 26 57 10 12 42 37 24 27 63 58 45 21 48 66 67 49 47 72 43 64 73
27 36 11 2 14 57 26 6 30 42 13 15 40 63 28 31 61 66 48 25 51 70 50 72 52 44 65 74

CELL_TYPES 8
28
28
28
28
29
29
29
29

CELL_DATA 8
SCALARS CellEntityIds int 1
LOOKUP_TABLE default
1
1
1
1
1
1
1
1
