# vtk DataFile Version 2.0
domain, Created by Gmsh 4.14.0 
ASCII
DATASET UNSTRUCTURED_GRID
POINTS 18 double
0 0 0.1
1 0 0.1
1 1 0.1
0 1 0.1
0 0 0.2
1 0 0.2
1 1 0.2
0 1 0.2
0.5 0 0.1
1 0.5 0.1
0.5 1 0.1
0 0.5 0.1
0.5 0 0.2
1 0.5 0.2
0.5 1 0.2
0 0.5 0.2
0.5 0.5 0.09999999999999999
0.5 0.5 0.2

CELLS 8 56
4 0 8 16 11
4 11 16 10 3
4 8 1 9 16
4 16 9 2 10
8 0 8 16 11 4 12 17 15
8 11 16 10 3 15 17 14 7
8 8 1 9 16 12 5 13 17
8 16 9 2 10 17 13 6 14

CELL_TYPES 8
9
9
9
9
12
12
12
12

CELL_DATA 8
SCALARS CellEntityIds int 1
LOOKUP_TABLE default
1
1
1
1
1
1
1
1
