# vtk DataFile Version 2.0
domain, Created by Gmsh 4.14.0 
ASCII
DATASET UNSTRUCTURED_GRID
POINTS 867 double
0 0 0.1
1 0 0.1
1 1 0.1
0 1 0.1
0 0 0.2
1 0 0.2
1 1 0.2
0 1 0.2
0.125 0 0.1
0.25 0 0.1
0.375 0 0.1
0.5 0 0.1
0.625 0 0.1
0.75 0 0.1
0.875 0 0.1
0.06249999999999999 0 0.1
0.1875 0 0.1
0.3125 0 0.1
0.4375 0 0.1
0.5625 0 0.1
0.6875 0 0.1
0.8125 0 0.1
0.9375 0 0.1
1 0.125 0.1
1 0.25 0.1
1 0.375 0.1
1 0.5 0.1
1 0.625 0.1
1 0.75 0.1
1 0.875 0.1
1 0.06249999999999999 0.1
1 0.1875 0.1
1 0.3125 0.1
1 0.4375 0.1
1 0.5625 0.1
1 0.6875 0.1
1 0.8125 0.1
1 0.9375 0.1
0.875 1 0.1
0.75 1 0.1
0.625 1 0.1
0.5 1 0.1
0.375 1 0.1
0.25 1 0.1
0.125 1 0.1
0.9375 1 0.1
0.8125 1 0.1
0.6875 1 0.1
0.5625 1 0.1
0.4375 1 0.1
0.3125 1 0.1
0.1875 1 0.1
0.0625 1 0.1
0 0.875 0.1
0 0.75 0.1
0 0.625 0.1
0 0.5 0.1
0 0.375 0.1
0 0.25 0.1
0 0.125 0.1
0 0.9375 0.1
0 0.8125 0.1
0 0.6875 0.1
0 0.5625 0.1
0 0.4375 0.1
0 0.3125 0.1
0 0.1875 0.1
0 0.0625 0.1
0 0 0.15
1 0 0.15
0.125 0 0.2
0.25 0 0.2
0.375 0 0.2
0.5 0 0.2
0.625 0 0.2
0.75 0 0.2
0.875 0 0.2
0.06249999999999999 0 0.2
0.1875 0 0.2
0.3125 0 0.2
0.4375 0 0.2
0.5625 0 0.2
0.6875 0 0.2
0.8125 0 0.2
0.9375 0 0.2
1 1 0.15
1 0.125 0.2
1 0.25 0.2
1 0.375 0.2
1 0.5 0.2
1 0.625 0.2
1 0.75 0.2
1 0.875 0.2
1 0.06249999999999999 0.2
1 0.1875 0.2
1 0.3125 0.2
1 0.4375 0.2
1 0.5625 0.2
1 0.6875 0.2
1 0.8125 0.2
1 0.9375 0.2
0 1 0.15
0.875 1 0.2
0.75 1 0.2
0.625 1 0.2
0.5 1 0.2
0.375 1 0.2
0.25 1 0.2
0.125 1 0.2
0.9375 1 0.2
0.8125 1 0.2
0.6875 1 0.2
0.5625 1 0.2
0.4375 1 0.2
0.3125 1 0.2
0.1875 1 0.2
0.0625 1 0.2
0 0.875 0.2
0 0.75 0.2
0 0.625 0.2
0 0.5 0.2
0 0.375 0.2
0 0.25 0.2
0 0.125 0.2
0 0.9375 0.2
0 0.8125 0.2
0 0.6875 0.2
0 0.5625 0.2
0 0.4375 0.2
0 0.3125 0.2
0 0.1875 0.2
0 0.0625 0.2
0.125 0.125 0.09999999999999999
0.125 0.25 0.09999999999999999
0.125 0.375 0.09999999999999999
0.125 0.5 0.09999999999999999
0.125 0.625 0.09999999999999999
0.125 0.75 0.09999999999999999
0.125 0.875 0.09999999999999999
0.25 0.125 0.09999999999999999
0.25 0.25 0.09999999999999999
0.25 0.375 0.09999999999999999
0.25 0.5 0.09999999999999999
0.25 0.625 0.09999999999999999
0.25 0.75 0.09999999999999999
0.25 0.875 0.09999999999999999
0.375 0.125 0.09999999999999999
0.375 0.25 0.09999999999999999
0.375 0.375 0.09999999999999999
0.375 0.5 0.09999999999999999
0.375 0.625 0.09999999999999999
0.375 0.75 0.09999999999999999
0.375 0.875 0.09999999999999999
0.5 0.125 0.09999999999999999
0.5 0.25 0.09999999999999999
0.5 0.375 0.09999999999999999
0.5 0.5 0.09999999999999999
0.5 0.625 0.09999999999999999
0.5 0.75 0.09999999999999999
0.5 0.875 0.09999999999999999
0.625 0.125 0.09999999999999999
0.625 0.25 0.09999999999999999
0.625 0.375 0.09999999999999999
0.625 0.5 0.09999999999999999
0.625 0.625 0.09999999999999999
0.625 0.75 0.09999999999999999
0.625 0.875 0.09999999999999999
0.75 0.125 0.09999999999999999
0.75 0.25 0.09999999999999999
0.75 0.375 0.09999999999999999
0.75 0.5 0.09999999999999999
0.75 0.625 0.09999999999999999
0.75 0.75 0.09999999999999999
0.75 0.875 0.09999999999999999
0.875 0.125 0.09999999999999999
0.875 0.25 0.09999999999999999
0.875 0.375 0.09999999999999999
0.875 0.5 0.09999999999999999
0.875 0.625 0.09999999999999999
0.875 0.75 0.09999999999999999
0.875 0.875 0.09999999999999999
0.125 0.0625 0.09999999999999999
0.0625 0.125 0.09999999999999999
0.0625 0.0625 0.09999999999999999
0.125 0.1875 0.09999999999999999
0.0625 0.25 0.09999999999999999
0.0625 0.1875 0.09999999999999999
0.125 0.3125 0.09999999999999999
0.0625 0.375 0.09999999999999999
0.0625 0.3125 0.09999999999999999
0.125 0.4375 0.09999999999999999
0.0625 0.5 0.09999999999999999
0.0625 0.4375 0.09999999999999999
0.125 0.5625 0.09999999999999999
0.0625 0.625 0.09999999999999999
0.0625 0.5625 0.09999999999999999
0.125 0.6875 0.09999999999999999
0.0625 0.75 0.09999999999999999
0.0625 0.6875 0.09999999999999999
0.125 0.8125 0.09999999999999999
0.0625 0.875 0.09999999999999999
0.0625 0.8125 0.09999999999999999
0.125 0.9375 0.09999999999999999
0.0625 0.9375 0.09999999999999999
0.25 0.0625 0.09999999999999999
0.1875 0.125 0.09999999999999999
0.1875 0.0625 0.09999999999999999
0.25 0.1875 0.09999999999999999
0.1875 0.25 0.09999999999999999
0.1875 0.1875 0.09999999999999999
0.25 0.3125 0.09999999999999999
0.1875 0.375 0.09999999999999999
0.1875 0.3125 0.09999999999999999
0.25 0.4375 0.09999999999999999
0.1875 0.5 0.09999999999999999
0.1875 0.4375 0.09999999999999999
0.25 0.5625 0.09999999999999999
0.1875 0.625 0.09999999999999999
0.1875 0.5625 0.09999999999999999
0.25 0.6875 0.09999999999999999
0.1875 0.75 0.09999999999999999
0.1875 0.6875 0.09999999999999999
0.25 0.8125 0.09999999999999999
0.1875 0.875 0.09999999999999999
0.1875 0.8125 0.09999999999999999
0.25 0.9375 0.09999999999999999
0.1875 0.9375 0.09999999999999999
0.375 0.0625 0.09999999999999999
0.3125 0.125 0.09999999999999999
0.3125 0.0625 0.09999999999999999
0.375 0.1875 0.09999999999999999
0.3125 0.25 0.09999999999999999
0.3125 0.1875 0.09999999999999999
0.375 0.3125 0.09999999999999999
0.3125 0.375 0.09999999999999999
0.3125 0.3125 0.09999999999999999
0.375 0.4375 0.09999999999999999
0.3125 0.5 0.09999999999999999
0.3125 0.4375 0.09999999999999999
0.375 0.5625 0.09999999999999999
0.3125 0.625 0.09999999999999999
0.3125 0.5625 0.09999999999999999
0.375 0.6875 0.09999999999999999
0.3125 0.75 0.09999999999999999
0.3125 0.6875 0.09999999999999999
0.375 0.8125 0.09999999999999999
0.3125 0.875 0.09999999999999999
0.3125 0.8125 0.09999999999999999
0.375 0.9375 0.09999999999999999
0.3125 0.9375 0.09999999999999999
0.5 0.0625 0.09999999999999999
0.4375 0.125 0.09999999999999999
0.4375 0.0625 0.09999999999999999
0.5 0.1875 0.09999999999999999
0.4375 0.25 0.09999999999999999
0.4375 0.1875 0.09999999999999999
0.5 0.3125 0.09999999999999999
0.4375 0.375 0.09999999999999999
0.4375 0.3125 0.09999999999999999
0.5 0.4375 0.09999999999999999
0.4375 0.5 0.09999999999999999
0.4375 0.4375 0.09999999999999999
0.5 0.5625 0.09999999999999999
0.4375 0.625 0.09999999999999999
0.4375 0.5625 0.09999999999999999
0.5 0.6875 0.09999999999999999
0.4375 0.75 0.09999999999999999
0.4375 0.6875 0.09999999999999999
0.5 0.8125 0.09999999999999999
0.4375 0.875 0.09999999999999999
0.4375 0.8125 0.09999999999999999
0.5 0.9375 0.09999999999999999
0.4375 0.9375 0.09999999999999999
0.625 0.0625 0.09999999999999999
0.5625 0.125 0.09999999999999999
0.5625 0.0625 0.09999999999999999
0.625 0.1875 0.09999999999999999
0.5625 0.25 0.09999999999999999
0.5625 0.1875 0.09999999999999999
0.625 0.3125 0.09999999999999999
0.5625 0.375 0.09999999999999999
0.5625 0.3125 0.09999999999999999
0.625 0.4375 0.09999999999999999
0.5625 0.5 0.09999999999999999
0.5625 0.4375 0.09999999999999999
0.625 0.5625 0.09999999999999999
0.5625 0.625 0.09999999999999999
0.5625 0.5625 0.09999999999999999
0.625 0.6875 0.09999999999999999
0.5625 0.75 0.09999999999999999
0.5625 0.6875 0.09999999999999999
0.625 0.8125 0.09999999999999999
0.5625 0.875 0.09999999999999999
0.5625 0.8125 0.09999999999999999
0.625 0.9375 0.09999999999999999
0.5625 0.9375 0.09999999999999999
0.75 0.0625 0.09999999999999999
0.6875 0.125 0.09999999999999999
0.6875 0.0625 0.09999999999999999
0.75 0.1875 0.09999999999999999
0.6875 0.25 0.09999999999999999
0.6875 0.1875 0.09999999999999999
0.75 0.3125 0.09999999999999999
0.6875 0.375 0.09999999999999999
0.6875 0.3125 0.09999999999999999
0.75 0.4375 0.09999999999999999
0.6875 0.5 0.09999999999999999
0.6875 0.4375 0.09999999999999999
0.75 0.5625 0.09999999999999999
0.6875 0.625 0.09999999999999999
0.6875 0.5625 0.09999999999999999
0.75 0.6875 0.09999999999999999
0.6875 0.75 0.09999999999999999
0.6875 0.6875 0.09999999999999999
0.75 0.8125 0.09999999999999999
0.6875 0.875 0.09999999999999999
0.6875 0.8125 0.09999999999999999
0.75 0.9375 0.09999999999999999
0.6875 0.9375 0.09999999999999999
0.875 0.0625 0.09999999999999999
0.8125 0.125 0.09999999999999999
0.8125 0.0625 0.09999999999999999
0.875 0.1875 0.09999999999999999
0.8125 0.25 0.09999999999999999
0.8125 0.1875 0.09999999999999999
0.875 0.3125 0.09999999999999999
0.8125 0.375 0.09999999999999999
0.8125 0.3125 0.09999999999999999
0.875 0.4375 0.09999999999999999
0.8125 0.5 0.09999999999999999
0.8125 0.4375 0.09999999999999999
0.875 0.5625 0.09999999999999999
0.8125 0.625 0.09999999999999999
0.8125 0.5625 0.09999999999999999
0.875 0.6875 0.09999999999999999
0.8125 0.75 0.09999999999999999
0.8125 0.6875 0.09999999999999999
0.875 0.8125 0.09999999999999999
0.8125 0.875 0.09999999999999999
0.8125 0.8125 0.09999999999999999
0.875 0.9375 0.09999999999999999
0.8125 0.9375 0.09999999999999999
0.9375 0.125 0.09999999999999999
0.9375 0.0625 0.09999999999999999
0.9375 0.25 0.09999999999999999
0.9375 0.1875 0.09999999999999999
0.9375 0.375 0.09999999999999999
0.9375 0.3125 0.09999999999999999
0.9375 0.5 0.09999999999999999
0.9375 0.4375 0.09999999999999999
0.9375 0.625 0.09999999999999999
0.9375 0.5625 0.09999999999999999
0.9375 0.75 0.09999999999999999
0.9375 0.6875 0.09999999999999999
0.9375 0.875 0.09999999999999999
0.9375 0.8125 0.09999999999999999
0.9375 0.9375 0.09999999999999999
0.125 0 0.15
0.0625 0 0.15
0.25 0 0.15
0.1875 0 0.15
0.375 0 0.15
0.3125 0 0.15
0.5 0 0.15
0.4375 0 0.15
0.625 0 0.15
0.5625 0 0.15
0.75 0 0.15
0.6875 0 0.15
0.875 0 0.15
0.8125 0 0.15
0.9375 0 0.15
1 0.125 0.15
1 0.0625 0.15
1 0.25 0.15
1 0.1875 0.15
1 0.375 0.15
1 0.3125 0.15
1 0.5 0.15
1 0.4375 0.15
1 0.625 0.15
1 0.5625 0.15
1 0.75 0.15
1 0.6875 0.15
1 0.875 0.15
1 0.8125 0.15
1 0.9375 0.15
0.875 1 0.15
0.9375 1 0.15
0.75 1 0.15
0.8125 1 0.15
0.625 1 0.15
0.6875 1 0.15
0.5 1 0.15
0.5625 1 0.15
0.375 1 0.15
0.4375 1 0.15
0.25 1 0.15
0.3125 1 0.15
0.125 1 0.15
0.1875 1 0.15
0.0625 1 0.15
0 0.875 0.15
0 0.9375 0.15
0 0.75 0.15
0 0.8125 0.15
0 0.625 0.15
0 0.6875 0.15
0 0.5 0.15
0 0.5625 0.15
0 0.375 0.15
0 0.4375 0.15
0 0.25 0.15
0 0.3125 0.15
0 0.125 0.15
0 0.1875 0.15
0 0.0625 0.15
0.125 0.125 0.2
0.125 0.25 0.2
0.125 0.375 0.2
0.125 0.5 0.2
0.125 0.625 0.2
0.125 0.75 0.2
0.125 0.875 0.2
0.25 0.125 0.2
0.25 0.25 0.2
0.25 0.375 0.2
0.25 0.5 0.2
0.25 0.625 0.2
0.25 0.75 0.2
0.25 0.875 0.2
0.375 0.125 0.2
0.375 0.25 0.2
0.375 0.375 0.2
0.375 0.5 0.2
0.375 0.625 0.2
0.375 0.75 0.2
0.375 0.875 0.2
0.5 0.125 0.2
0.5 0.25 0.2
0.5 0.375 0.2
0.5 0.5 0.2
0.5 0.625 0.2
0.5 0.75 0.2
0.5 0.875 0.2
0.625 0.125 0.2
0.625 0.25 0.2
0.625 0.375 0.2
0.625 0.5 0.2
0.625 0.625 0.2
0.625 0.75 0.2
0.625 0.875 0.2
0.75 0.125 0.2
0.75 0.25 0.2
0.75 0.375 0.2
0.75 0.5 0.2
0.75 0.625 0.2
0.75 0.75 0.2
0.75 0.875 0.2
0.875 0.125 0.2
0.875 0.25 0.2
0.875 0.375 0.2
0.875 0.5 0.2
0.875 0.625 0.2
0.875 0.75 0.2
0.875 0.875 0.2
0.125 0.0625 0.2
0.0625 0.125 0.2
0.0625 0.0625 0.2
0.125 0.1875 0.2
0.0625 0.25 0.2
0.0625 0.1875 0.2
0.125 0.3125 0.2
0.0625 0.375 0.2
0.0625 0.3125 0.2
0.125 0.4375 0.2
0.0625 0.5 0.2
0.0625 0.4375 0.2
0.125 0.5625 0.2
0.0625 0.625 0.2
0.0625 0.5625 0.2
0.125 0.6875 0.2
0.0625 0.75 0.2
0.0625 0.6875 0.2
0.125 0.8125 0.2
0.0625 0.875 0.2
0.0625 0.8125 0.2
0.125 0.9375 0.2
0.0625 0.9375 0.2
0.25 0.0625 0.2
0.1875 0.125 0.2
0.1875 0.0625 0.2
0.25 0.1875 0.2
0.1875 0.25 0.2
0.1875 0.1875 0.2
0.25 0.3125 0.2
0.1875 0.375 0.2
0.1875 0.3125 0.2
0.25 0.4375 0.2
0.1875 0.5 0.2
0.1875 0.4375 0.2
0.25 0.5625 0.2
0.1875 0.625 0.2
0.1875 0.5625 0.2
0.25 0.6875 0.2
0.1875 0.75 0.2
0.1875 0.6875 0.2
0.25 0.8125 0.2
0.1875 0.875 0.2
0.1875 0.8125 0.2
0.25 0.9375 0.2
0.1875 0.9375 0.2
0.375 0.0625 0.2
0.3125 0.125 0.2
0.3125 0.0625 0.2
0.375 0.1875 0.2
0.3125 0.25 0.2
0.3125 0.1875 0.2
0.375 0.3125 0.2
0.3125 0.375 0.2
0.3125 0.3125 0.2
0.375 0.4375 0.2
0.3125 0.5 0.2
0.3125 0.4375 0.2
0.375 0.5625 0.2
0.3125 0.625 0.2
0.3125 0.5625 0.2
0.375 0.6875 0.2
0.3125 0.75 0.2
0.3125 0.6875 0.2
0.375 0.8125 0.2
0.3125 0.875 0.2
0.3125 0.8125 0.2
0.375 0.9375 0.2
0.3125 0.9375 0.2
0.5 0.0625 0.2
0.4375 0.125 0.2
0.4375 0.0625 0.2
0.5 0.1875 0.2
0.4375 0.25 0.2
0.4375 0.1875 0.2
0.5 0.3125 0.2
0.4375 0.375 0.2
0.4375 0.3125 0.2
0.5 0.4375 0.2
0.4375 0.5 0.2
0.4375 0.4375 0.2
0.5 0.5625 0.2
0.4375 0.625 0.2
0.4375 0.5625 0.2
0.5 0.6875 0.2
0.4375 0.75 0.2
0.4375 0.6875 0.2
0.5 0.8125 0.2
0.4375 0.875 0.2
0.4375 0.8125 0.2
0.5 0.9375 0.2
0.4375 0.9375 0.2
0.625 0.0625 0.2
0.5625 0.125 0.2
0.5625 0.0625 0.2
0.625 0.1875 0.2
0.5625 0.25 0.2
0.5625 0.1875 0.2
0.625 0.3125 0.2
0.5625 0.375 0.2
0.5625 0.3125 0.2
0.625 0.4375 0.2
0.5625 0.5 0.2
0.5625 0.4375 0.2
0.625 0.5625 0.2
0.5625 0.625 0.2
0.5625 0.5625 0.2
0.625 0.6875 0.2
0.5625 0.75 0.2
0.5625 0.6875 0.2
0.625 0.8125 0.2
0.5625 0.875 0.2
0.5625 0.8125 0.2
0.625 0.9375 0.2
0.5625 0.9375 0.2
0.75 0.0625 0.2
0.6875 0.125 0.2
0.6875 0.0625 0.2
0.75 0.1875 0.2
0.6875 0.25 0.2
0.6875 0.1875 0.2
0.75 0.3125 0.2
0.6875 0.375 0.2
0.6875 0.3125 0.2
0.75 0.4375 0.2
0.6875 0.5 0.2
0.6875 0.4375 0.2
0.75 0.5625 0.2
0.6875 0.625 0.2
0.6875 0.5625 0.2
0.75 0.6875 0.2
0.6875 0.75 0.2
0.6875 0.6875 0.2
0.75 0.8125 0.2
0.6875 0.875 0.2
0.6875 0.8125 0.2
0.75 0.9375 0.2
0.6875 0.9375 0.2
0.875 0.0625 0.2
0.8125 0.125 0.2
0.8125 0.0625 0.2
0.875 0.1875 0.2
0.8125 0.25 0.2
0.8125 0.1875 0.2
0.875 0.3125 0.2
0.8125 0.375 0.2
0.8125 0.3125 0.2
0.875 0.4375 0.2
0.8125 0.5 0.2
0.8125 0.4375 0.2
0.875 0.5625 0.2
0.8125 0.625 0.2
0.8125 0.5625 0.2
0.875 0.6875 0.2
0.8125 0.75 0.2
0.8125 0.6875 0.2
0.875 0.8125 0.2
0.8125 0.875 0.2
0.8125 0.8125 0.2
0.875 0.9375 0.2
0.8125 0.9375 0.2
0.9375 0.125 0.2
0.9375 0.0625 0.2
0.9375 0.25 0.2
0.9375 0.1875 0.2
0.9375 0.375 0.2
0.9375 0.3125 0.2
0.9375 0.5 0.2
0.9375 0.4375 0.2
0.9375 0.625 0.2
0.9375 0.5625 0.2
0.9375 0.75 0.2
0.9375 0.6875 0.2
0.9375 0.875 0.2
0.9375 0.8125 0.2
0.9375 0.9375 0.2
0.125 0.125 0.15
0.125 0.0625 0.15
0.0625 0.125 0.15
0.0625 0.0625 0.15
0.125 0.25 0.15
0.125 0.1875 0.15
0.0625 0.25 0.15
0.0625 0.1875 0.15
0.125 0.375 0.15
0.125 0.3125 0.15
0.0625 0.375 0.15
0.0625 0.3125 0.15
0.125 0.5 0.15
0.125 0.4375 0.15
0.0625 0.5 0.15
0.0625 0.4375 0.15
0.125 0.625 0.15
0.125 0.5625 0.15
0.0625 0.625 0.15
0.0625 0.5625 0.15
0.125 0.75 0.15
0.125 0.6875 0.15
0.0625 0.75 0.15
0.0625 0.6875 0.15
0.125 0.875 0.15
0.125 0.8125 0.15
0.0625 0.875 0.15
0.0625 0.8125 0.15
0.125 0.9375 0.15
0.0625 0.9375 0.15
0.25 0.125 0.15
0.25 0.0625 0.15
0.1875 0.125 0.15
0.1875 0.0625 0.15
0.25 0.25 0.15
0.25 0.1875 0.15
0.1875 0.25 0.15
0.1875 0.1875 0.15
0.25 0.375 0.15
0.25 0.3125 0.15
0.1875 0.375 0.15
0.1875 0.3125 0.15
0.25 0.5 0.15
0.25 0.4375 0.15
0.1875 0.5 0.15
0.1875 0.4375 0.15
0.25 0.625 0.15
0.25 0.5625 0.15
0.1875 0.625 0.15
0.1875 0.5625 0.15
0.25 0.75 0.15
0.25 0.6875 0.15
0.1875 0.75 0.15
0.1875 0.6875 0.15
0.25 0.875 0.15
0.25 0.8125 0.15
0.1875 0.875 0.15
0.1875 0.8125 0.15
0.25 0.9375 0.15
0.1875 0.9375 0.15
0.375 0.125 0.15
0.375 0.0625 0.15
0.3125 0.125 0.15
0.3125 0.0625 0.15
0.375 0.25 0.15
0.375 0.1875 0.15
0.3125 0.25 0.15
0.3125 0.1875 0.15
0.375 0.375 0.15
0.375 0.3125 0.15
0.3125 0.375 0.15
0.3125 0.3125 0.15
0.375 0.5 0.15
0.375 0.4375 0.15
0.3125 0.5 0.15
0.3125 0.4375 0.15
0.375 0.625 0.15
0.375 0.5625 0.15
0.3125 0.625 0.15
0.3125 0.5625 0.15
0.375 0.75 0.15
0.375 0.6875 0.15
0.3125 0.75 0.15
0.3125 0.6875 0.15
0.375 0.875 0.15
0.375 0.8125 0.15
0.3125 0.875 0.15
0.3125 0.8125 0.15
0.375 0.9375 0.15
0.3125 0.9375 0.15
0.5 0.125 0.15
0.5 0.0625 0.15
0.4375 0.125 0.15
0.4375 0.0625 0.15
0.5 0.25 0.15
0.5 0.1875 0.15
0.4375 0.25 0.15
0.4375 0.1875 0.15
0.5 0.375 0.15
0.5 0.3125 0.15
0.4375 0.375 0.15
0.4375 0.3125 0.15
0.5 0.5 0.15
0.5 0.4375 0.15
0.4375 0.5 0.15
0.4375 0.4375 0.15
0.5 0.625 0.15
0.5 0.5625 0.15
0.4375 0.625 0.15
0.4375 0.5625 0.15
0.5 0.75 0.15
0.5 0.6875 0.15
0.4375 0.75 0.15
0.4375 0.6875 0.15
0.5 0.875 0.15
0.5 0.8125 0.15
0.4375 0.875 0.15
0.4375 0.8125 0.15
0.5 0.9375 0.15
0.4375 0.9375 0.15
0.625 0.125 0.15
0.625 0.0625 0.15
0.5625 0.125 0.15
0.5625 0.0625 0.15
0.625 0.25 0.15
0.625 0.1875 0.15
0.5625 0.25 0.15
0.5625 0.1875 0.15
0.625 0.375 0.15
0.625 0.3125 0.15
0.5625 0.375 0.15
0.5625 0.3125 0.15
0.625 0.5 0.15
0.625 0.4375 0.15
0.5625 0.5 0.15
0.5625 0.4375 0.15
0.625 0.625 0.15
0.625 0.5625 0.15
0.5625 0.625 0.15
0.5625 0.5625 0.15
0.625 0.75 0.15
0.625 0.6875 0.15
0.5625 0.75 0.15
0.5625 0.6875 0.15
0.625 0.875 0.15
0.625 0.8125 0.15
0.5625 0.875 0.15
0.5625 0.8125 0.15
0.625 0.9375 0.15
0.5625 0.9375 0.15
0.75 0.125 0.15
0.75 0.0625 0.15
0.6875 0.125 0.15
0.6875 0.0625 0.15
0.75 0.25 0.15
0.75 0.1875 0.15
0.6875 0.25 0.15
0.6875 0.1875 0.15
0.75 0.375 0.15
0.75 0.3125 0.15
0.6875 0.375 0.15
0.6875 0.3125 0.15
0.75 0.5 0.15
0.75 0.4375 0.15
0.6875 0.5 0.15
0.6875 0.4375 0.15
0.75 0.625 0.15
0.75 0.5625 0.15
0.6875 0.625 0.15
0.6875 0.5625 0.15
0.75 0.75 0.15
0.75 0.6875 0.15
0.6875 0.75 0.15
0.6875 0.6875 0.15
0.75 0.875 0.15
0.75 0.8125 0.15
0.6875 0.875 0.15
0.6875 0.8125 0.15
0.75 0.9375 0.15
0.6875 0.9375 0.15
0.875 0.125 0.15
0.875 0.0625 0.15
0.8125 0.125 0.15
0.8125 0.0625 0.15
0.875 0.25 0.15
0.875 0.1875 0.15
0.8125 0.25 0.15
0.8125 0.1875 0.15
0.875 0.375 0.15
0.875 0.3125 0.15
0.8125 0.375 0.15
0.8125 0.3125 0.15
0.875 0.5 0.15
0.875 0.4375 0.15
0.8125 0.5 0.15
0.8125 0.4375 0.15
0.875 0.625 0.15
0.875 0.5625 0.15
0.8125 0.625 0.15
0.8125 0.5625 0.15
0.875 0.75 0.15
0.875 0.6875 0.15
0.8125 0.75 0.15
0.8125 0.6875 0.15
0.875 0.875 0.15
0.875 0.8125 0.15
0.8125 0.875 0.15
0.8125 0.8125 0.15
0.875 0.9375 0.15
0.8125 0.9375 0.15
0.9375 0.125 0.15
0.9375 0.0625 0.15
0.9375 0.25 0.15
0.9375 0.1875 0.15
0.9375 0.375 0.15
0.9375 0.3125 0.15
0.9375 0.5 0.15
0.9375 0.4375 0.15
0.9375 0.625 0.15
0.9375 0.5625 0.15
0.9375 0.75 0.15
0.9375 0.6875 0.15
0.9375 0.875 0.15
0.9375 0.8125 0.15
0.9375 0.9375 0.15

CELLS 128 2432
9 0 8 132 59 15 181 182 67 183
9 59 132 133 58 182 184 185 66 186
9 58 133 134 57 185 187 188 65 189
9 57 134 135 56 188 190 191 64 192
9 56 135 136 55 191 193 194 63 195
9 55 136 137 54 194 196 197 62 198
9 54 137 138 53 197 199 200 61 201
9 53 138 44 3 200 202 52 60 203
9 8 9 139 132 16 204 205 181 206
9 132 139 140 133 205 207 208 184 209
9 133 140 141 134 208 210 211 187 212
9 134 141 142 135 211 213 214 190 215
9 135 142 143 136 214 216 217 193 218
9 136 143 144 137 217 219 220 196 221
9 137 144 145 138 220 222 223 199 224
9 138 145 43 44 223 225 51 202 226
9 9 10 146 139 17 227 228 204 229
9 139 146 147 140 228 230 231 207 232
9 140 147 148 141 231 233 234 210 235
9 141 148 149 142 234 236 237 213 238
9 142 149 150 143 237 239 240 216 241
9 143 150 151 144 240 242 243 219 244
9 144 151 152 145 243 245 246 222 247
9 145 152 42 43 246 248 50 225 249
9 10 11 153 146 18 250 251 227 252
9 146 153 154 147 251 253 254 230 255
9 147 154 155 148 254 256 257 233 258
9 148 155 156 149 257 259 260 236 261
9 149 156 157 150 260 262 263 239 264
9 150 157 158 151 263 265 266 242 267
9 151 158 159 152 266 268 269 245 270
9 152 159 41 42 269 271 49 248 272
9 11 12 160 153 19 273 274 250 275
9 153 160 161 154 274 276 277 253 278
9 154 161 162 155 277 279 280 256 281
9 155 162 163 156 280 282 283 259 284
9 156 163 164 157 283 285 286 262 287
9 157 164 165 158 286 288 289 265 290
9 158 165 166 159 289 291 292 268 293
9 159 166 40 41 292 294 48 271 295
9 12 13 167 160 20 296 297 273 298
9 160 167 168 161 297 299 300 276 301
9 161 168 169 162 300 302 303 279 304
9 162 169 170 163 303 305 306 282 307
9 163 170 171 164 306 308 309 285 310
9 164 171 172 165 309 311 312 288 313
9 165 172 173 166 312 314 315 291 316
9 166 173 39 40 315 317 47 294 318
9 13 14 174 167 21 319 320 296 321
9 167 174 175 168 320 322 323 299 324
9 168 175 176 169 323 325 326 302 327
9 169 176 177 170 326 328 329 305 330
9 170 177 178 171 329 331 332 308 333
9 171 178 179 172 332 334 335 311 336
9 172 179 180 173 335 337 338 314 339
9 173 180 38 39 338 340 46 317 341
9 14 1 23 174 22 30 342 319 343
9 174 23 24 175 342 31 344 322 345
9 175 24 25 176 344 32 346 325 347
9 176 25 26 177 346 33 348 328 349
9 177 26 27 178 348 34 350 331 351
9 178 27 28 179 350 35 352 334 353
9 179 28 29 180 352 36 354 337 355
9 180 29 2 38 354 37 45 340 356
27 0 8 132 59 4 70 417 123 15 181 182 67 77 466 467 131 68 357 642 414 416 643 358 644 183 468 645
27 59 132 133 58 123 417 418 122 182 184 185 66 467 469 470 130 414 642 646 412 415 647 644 648 186 471 649
27 58 133 134 57 122 418 419 121 185 187 188 65 470 472 473 129 412 646 650 410 413 651 648 652 189 474 653
27 57 134 135 56 121 419 420 120 188 190 191 64 473 475 476 128 410 650 654 408 411 655 652 656 192 477 657
27 56 135 136 55 120 420 421 119 191 193 194 63 476 478 479 127 408 654 658 406 409 659 656 660 195 480 661
27 55 136 137 54 119 421 422 118 194 196 197 62 479 481 482 126 406 658 662 404 407 663 660 664 198 483 665
27 54 137 138 53 118 422 423 117 197 199 200 61 482 484 485 125 404 662 666 402 405 667 664 668 201 486 669
27 53 138 44 3 117 423 108 7 200 202 52 60 485 487 116 124 402 666 399 101 403 670 668 401 203 488 671
27 8 9 139 132 70 71 424 417 16 204 205 181 78 489 490 466 357 359 672 642 643 673 360 674 206 491 675
27 132 139 140 133 417 424 425 418 205 207 208 184 490 492 493 469 642 672 676 646 647 677 674 678 209 494 679
27 133 140 141 134 418 425 426 419 208 210 211 187 493 495 496 472 646 676 680 650 651 681 678 682 212 497 683
27 134 141 142 135 419 426 427 420 211 213 214 190 496 498 499 475 650 680 684 654 655 685 682 686 215 500 687
27 135 142 143 136 420 427 428 421 214 216 217 193 499 501 502 478 654 684 688 658 659 689 686 690 218 503 691
27 136 143 144 137 421 428 429 422 217 219 220 196 502 504 505 481 658 688 692 662 663 693 690 694 221 506 695
27 137 144 145 138 422 429 430 423 220 222 223 199 505 507 508 484 662 692 696 666 667 697 694 698 224 509 699
27 138 145 43 44 423 430 107 108 223 225 51 202 508 510 115 487 666 696 397 399 670 700 698 400 226 511 701
27 9 10 146 139 71 72 431 424 17 227 228 204 79 512 513 489 359 361 702 672 673 703 362 704 229 514 705
27 139 146 147 140 424 431 432 425 228 230 231 207 513 515 516 492 672 702 706 676 677 707 704 708 232 517 709
27 140 147 148 141 425 432 433 426 231 233 234 210 516 518 519 495 676 706 710 680 681 711 708 712 235 520 713
27 141 148 149 142 426 433 434 427 234 236 237 213 519 521 522 498 680 710 714 684 685 715 712 716 238 523 717
27 142 149 150 143 427 434 435 428 237 239 240 216 522 524 525 501 684 714 718 688 689 719 716 720 241 526 721
27 143 150 151 144 428 435 436 429 240 242 243 219 525 527 528 504 688 718 722 692 693 723 720 724 244 529 725
27 144 151 152 145 429 436 437 430 243 245 246 222 528 530 531 507 692 722 726 696 697 727 724 728 247 532 729
27 145 152 42 43 430 437 106 107 246 248 50 225 531 533 114 510 696 726 395 397 700 730 728 398 249 534 731
27 10 11 153 146 72 73 438 431 18 250 251 227 80 535 536 512 361 363 732 702 703 733 364 734 252 537 735
27 146 153 154 147 431 438 439 432 251 253 254 230 536 538 539 515 702 732 736 706 707 737 734 738 255 540 739
27 147 154 155 148 432 439 440 433 254 256 257 233 539 541 542 518 706 736 740 710 711 741 738 742 258 543 743
27 148 155 156 149 433 440 441 434 257 259 260 236 542 544 545 521 710 740 744 714 715 745 742 746 261 546 747
27 149 156 157 150 434 441 442 435 260 262 263 239 545 547 548 524 714 744 748 718 719 749 746 750 264 549 751
27 150 157 158 151 435 442 443 436 263 265 266 242 548 550 551 527 718 748 752 722 723 753 750 754 267 552 755
27 151 158 159 152 436 443 444 437 266 268 269 245 551 553 554 530 722 752 756 726 727 757 754 758 270 555 759
27 152 159 41 42 437 444 105 106 269 271 49 248 554 556 113 533 726 756 393 395 730 760 758 396 272 557 761
27 11 12 160 153 73 74 445 438 19 273 274 250 81 558 559 535 363 365 762 732 733 763 366 764 275 560 765
27 153 160 161 154 438 445 446 439 274 276 277 253 559 561 562 538 732 762 766 736 737 767 764 768 278 563 769
27 154 161 162 155 439 446 447 440 277 279 280 256 562 564 565 541 736 766 770 740 741 771 768 772 281 566 773
27 155 162 163 156 440 447 448 441 280 282 283 259 565 567 568 544 740 770 774 744 745 775 772 776 284 569 777
27 156 163 164 157 441 448 449 442 283 285 286 262 568 570 571 547 744 774 778 748 749 779 776 780 287 572 781
27 157 164 165 158 442 449 450 443 286 288 289 265 571 573 574 550 748 778 782 752 753 783 780 784 290 575 785
27 158 165 166 159 443 450 451 444 289 291 292 268 574 576 577 553 752 782 786 756 757 787 784 788 293 578 789
27 159 166 40 41 444 451 104 105 292 294 48 271 577 579 112 556 756 786 391 393 760 790 788 394 295 580 791
27 12 13 167 160 74 75 452 445 20 296 297 273 82 581 582 558 365 367 792 762 763 793 368 794 298 583 795
27 160 167 168 161 445 452 453 446 297 299 300 276 582 584 585 561 762 792 796 766 767 797 794 798 301 586 799
27 161 168 169 162 446 453 454 447 300 302 303 279 585 587 588 564 766 796 800 770 771 801 798 802 304 589 803
27 162 169 170 163 447 454 455 448 303 305 306 282 588 590 591 567 770 800 804 774 775 805 802 806 307 592 807
27 163 170 171 164 448 455 456 449 306 308 309 285 591 593 594 570 774 804 808 778 779 809 806 810 310 595 811
27 164 171 172 165 449 456 457 450 309 311 312 288 594 596 597 573 778 808 812 782 783 813 810 814 313 598 815
27 165 172 173 166 450 457 458 451 312 314 315 291 597 599 600 576 782 812 816 786 787 817 814 818 316 601 819
27 166 173 39 40 451 458 103 104 315 317 47 294 600 602 111 579 786 816 389 391 790 820 818 392 318 603 821
27 13 14 174 167 75 76 459 452 21 319 320 296 83 604 605 581 367 369 822 792 793 823 370 824 321 606 825
27 167 174 175 168 452 459 460 453 320 322 323 299 605 607 608 584 792 822 826 796 797 827 824 828 324 609 829
27 168 175 176 169 453 460 461 454 323 325 326 302 608 610 611 587 796 826 830 800 801 831 828 832 327 612 833
27 169 176 177 170 454 461 462 455 326 328 329 305 611 613 614 590 800 830 834 804 805 835 832 836 330 615 837
27 170 177 178 171 455 462 463 456 329 331 332 308 614 616 617 593 804 834 838 808 809 839 836 840 333 618 841
27 171 178 179 172 456 463 464 457 332 334 335 311 617 619 620 596 808 838 842 812 813 843 840 844 336 621 845
27 172 179 180 173 457 464 465 458 335 337 338 314 620 622 623 599 812 842 846 816 817 847 844 848 339 624 849
27 173 180 38 39 458 465 102 103 338 340 46 317 623 625 110 602 816 846 387 389 820 850 848 390 341 626 851
27 14 1 23 174 76 5 86 459 22 30 342 319 84 93 627 604 369 69 372 822 823 373 371 852 343 628 853
27 174 23 24 175 459 86 87 460 342 31 344 322 627 94 629 607 822 372 374 826 827 375 852 854 345 630 855
27 175 24 25 176 460 87 88 461 344 32 346 325 629 95 631 610 826 374 376 830 831 377 854 856 347 632 857
27 176 25 26 177 461 88 89 462 346 33 348 328 631 96 633 613 830 376 378 834 835 379 856 858 349 634 859
27 177 26 27 178 462 89 90 463 348 34 350 331 633 97 635 616 834 378 380 838 839 381 858 860 351 636 861
27 178 27 28 179 463 90 91 464 350 35 352 334 635 98 637 619 838 380 382 842 843 383 860 862 353 638 863
27 179 28 29 180 464 91 92 465 352 36 354 337 637 99 639 622 842 382 384 846 847 385 862 864 355 640 865
27 180 29 2 38 465 92 6 102 354 37 45 340 639 100 109 625 846 384 85 387 850 386 864 388 356 641 866

CELL_TYPES 128
28
28
28
28
28
28
28
28
28
28
28
28
28
28
28
28
28
28
28
28
28
28
28
28
28
28
28
28
28
28
28
28
28
28
28
28
28
28
28
28
28
28
28
28
28
28
28
28
28
28
28
28
28
28
28
28
28
28
28
28
28
28
28
28
29
29
29
29
29
29
29
29
29
29
29
29
29
29
29
29
29
29
29
29
29
29
29
29
29
29
29
29
29
29
29
29
29
29
29
29
29
29
29
29
29
29
29
29
29
29
29
29
29
29
29
29
29
29
29
29
29
29
29
29
29
29
29
29

CELL_DATA 128
SCALARS CellEntityIds int 1
LOOKUP_TABLE default
1
1
1
1
1
1
1
1
1
1
1
1
1
1
1
1
1
1
1
1
1
1
1
1
1
1
1
1
1
1
1
1
1
1
1
1
1
1
1
1
1
1
1
1
1
1
1
1
1
1
1
1
1
1
1
1
1
1
1
1
1
1
1
1
1
1
1
1
1
1
1
1
1
1
1
1
1
1
1
1
1
1
1
1
1
1
1
1
1
1
1
1
1
1
1
1
1
1
1
1
1
1
1
1
1
1
1
1
1
1
1
1
1
1
1
1
1
1
1
1
1
1
1
1
1
1
1
1
