# vtk DataFile Version 2.0
domain, Created by Gmsh 4.13.1 
ASCII
DATASET UNSTRUCTURED_GRID
POINTS 91 double
0 0 0
1 0 0
1 1 0
0 1 0
0 0 1
1 0 1
1 1 1
0 1 1
1 0 0
2 0 0
2 1 0
1 1 0
1 0 1
2 0 1
2 1 1
1 1 1
0.5 0 0
1 0.5 0
0.5 1 0
0 0.5 0
0 0 0.5
1 0 0.5
0.5 0 1
1 1 0.5
1 0.5 1
0 1 0.5
0.5 1 1
0 0.5 1
1.333333333333333 0 0
1.666666666666667 0 0
2 0.3333333333333333 0
2 0.6666666666666666 0
1.666666666666667 1 0
1.333333333333333 1 0
1 0.6666666666666667 0
1 0.3333333333333334 0
1 0 0.3333333333333333
1 0 0.6666666666666666
2 0 0.3333333333333333
2 0 0.6666666666666666
1.333333333333333 0 1
1.666666666666667 0 1
2 1 0.3333333333333333
2 1 0.6666666666666666
2 0.3333333333333333 1
2 0.6666666666666666 1
1 1 0.3333333333333333
1 1 0.6666666666666666
1.666666666666667 1 1
1.333333333333333 1 1
1 0.6666666666666667 1
1 0.3333333333333334 1
0.5 0.5 0
0.5 0 0.5
1 0.5 0.5
0.5 1 0.5
0 0.5 0.5
0.5 0.5 1
1.333333333333333 0.3333333333333334 0
1.333333333333333 0.6666666666666667 0
1.666666666666667 0.3333333333333333 0
1.666666666666667 0.6666666666666666 0
1.333333333333333 0 0.3333333333333333
1.333333333333333 0 0.6666666666666666
1.666666666666667 0 0.3333333333333333
1.666666666666667 0 0.6666666666666666
2 0.3333333333333333 0.3333333333333333
2 0.3333333333333333 0.6666666666666666
2 0.6666666666666666 0.3333333333333333
2 0.6666666666666666 0.6666666666666666
1.666666666666667 1 0.3333333333333333
1.666666666666667 1 0.6666666666666666
1.333333333333333 1 0.3333333333333333
1.333333333333333 1 0.6666666666666666
1 0.6666666666666667 0.3333333333333333
1 0.6666666666666667 0.6666666666666666
1 0.3333333333333334 0.3333333333333333
1 0.3333333333333334 0.6666666666666666
1.333333333333333 0.3333333333333334 1
1.333333333333333 0.6666666666666667 1
1.666666666666667 0.3333333333333333 1
1.666666666666667 0.6666666666666666 1
0.5 0.5 0.5
1.333333333333333 0.3333333333333334 0.3333333333333333
1.333333333333333 0.3333333333333334 0.6666666666666666
1.333333333333333 0.6666666666666667 0.3333333333333333
1.333333333333333 0.6666666666666667 0.6666666666666666
1.666666666666667 0.3333333333333333 0.3333333333333333
1.666666666666667 0.3333333333333333 0.6666666666666666
1.666666666666667 0.6666666666666666 0.3333333333333333
1.666666666666667 0.6666666666666666 0.6666666666666666

CELLS 113 705
4 0 16 52 19
4 19 52 18 3
4 16 1 17 52
4 52 17 2 18
4 0 16 53 20
4 20 53 22 4
4 16 1 21 53
4 53 21 5 22
4 1 17 54 21
4 21 54 24 5
4 17 2 23 54
4 54 23 6 24
4 2 18 55 23
4 23 55 26 6
4 18 3 25 55
4 55 25 7 26
4 3 19 56 25
4 25 56 27 7
4 19 0 20 56
4 56 20 4 27
4 4 22 57 27
4 27 57 26 7
4 22 5 24 57
4 57 24 6 26
4 8 28 58 35
4 35 58 59 34
4 34 59 33 11
4 28 29 60 58
4 58 60 61 59
4 59 61 32 33
4 29 9 30 60
4 60 30 31 61
4 61 31 10 32
4 8 28 62 36
4 36 62 63 37
4 37 63 40 12
4 28 29 64 62
4 62 64 65 63
4 63 65 41 40
4 29 9 38 64
4 64 38 39 65
4 65 39 13 41
4 9 30 66 38
4 38 66 67 39
4 39 67 44 13
4 30 31 68 66
4 66 68 69 67
4 67 69 45 44
4 31 10 42 68
4 68 42 43 69
4 69 43 14 45
4 10 32 70 42
4 42 70 71 43
4 43 71 48 14
4 32 33 72 70
4 70 72 73 71
4 71 73 49 48
4 33 11 46 72
4 72 46 47 73
4 73 47 15 49
4 11 34 74 46
4 46 74 75 47
4 47 75 50 15
4 34 35 76 74
4 74 76 77 75
4 75 77 51 50
4 35 8 36 76
4 76 36 37 77
4 77 37 12 51
4 12 40 78 51
4 51 78 79 50
4 50 79 49 15
4 40 41 80 78
4 78 80 81 79
4 79 81 48 49
4 41 13 44 80
4 80 44 45 81
4 81 45 14 48
8 0 16 52 19 20 53 82 56
8 20 53 82 56 4 22 57 27
8 19 52 18 3 56 82 55 25
8 56 82 55 25 27 57 26 7
8 16 1 17 52 53 21 54 82
8 53 21 54 82 22 5 24 57
8 52 17 2 18 82 54 23 55
8 82 54 23 55 57 24 6 26
8 8 28 58 35 36 62 83 76
8 36 62 83 76 37 63 84 77
8 37 63 84 77 12 40 78 51
8 35 58 59 34 76 83 85 74
8 76 83 85 74 77 84 86 75
8 77 84 86 75 51 78 79 50
8 34 59 33 11 74 85 72 46
8 74 85 72 46 75 86 73 47
8 75 86 73 47 50 79 49 15
8 28 29 60 58 62 64 87 83
8 62 64 87 83 63 65 88 84
8 63 65 88 84 40 41 80 78
8 58 60 61 59 83 87 89 85
8 83 87 89 85 84 88 90 86
8 84 88 90 86 78 80 81 79
8 59 61 32 33 85 89 70 72
8 85 89 70 72 86 90 71 73
8 86 90 71 73 79 81 48 49
8 29 9 30 60 64 38 66 87
8 64 38 66 87 65 39 67 88
8 65 39 67 88 41 13 44 80
8 60 30 31 61 87 66 68 89
8 87 66 68 89 88 67 69 90
8 88 67 69 90 80 44 45 81
8 61 31 10 32 89 68 42 70
8 89 68 42 70 90 69 43 71
8 90 69 43 71 81 45 14 48

CELL_TYPES 113
9
9
9
9
9
9
9
9
9
9
9
9
9
9
9
9
9
9
9
9
9
9
9
9
9
9
9
9
9
9
9
9
9
9
9
9
9
9
9
9
9
9
9
9
9
9
9
9
9
9
9
9
9
9
9
9
9
9
9
9
9
9
9
9
9
9
9
9
9
9
9
9
9
9
9
9
9
9
12
12
12
12
12
12
12
12
12
12
12
12
12
12
12
12
12
12
12
12
12
12
12
12
12
12
12
12
12
12
12
12
12
12
12

CELL_DATA 113
SCALARS CellEntityIds int 1
LOOKUP_TABLE default
2
2
2
2
2
2
2
2
1
1
1
1
2
2
2
2
2
2
2
2
2
2
2
2
4
4
4
4
4
4
4
4
4
4
4
4
4
4
4
4
4
4
4
4
4
4
4
4
4
4
4
4
4
4
4
4
4
4
4
4
3
3
3
3
3
3
3
3
3
4
4
4
4
4
4
4
4
4
1
1
1
1
1
1
1
1
2
2
2
2
2
2
2
2
2
2
2
2
2
2
2
2
2
2
2
2
2
2
2
2
2
2
2
