<VTKFile type="UnstructuredGrid" version="1.0">
<UnstructuredGrid>
<FieldData>
<DataArray type="Float64" Name="TIME" NumberOfTuples="1" format="ascii" RangeMin="90" RangeMax="90">
90
</DataArray>
</FieldData>
<Piece NumberOfPoints="15131" NumberOfCells="64851">
<Points>
<DataArray type="Float64" NumberOfComponents="3" format="ascii">
0 0 400 100 0 400 100 25 400 0
25 400 0 0 403.75 100 0 403.75 100 25
403.75 0 25 403.75 0.884956 0 400 1.76991 0 400
2.65487 0 400 3.53982 0 400 4.42478 0 400 5.30973
0 400 6.19469 0 400 7.07965 0 400 7.9646 0
400 8.84956 0 400 9.73451 0 400 10.6195 0 400
11.5044 0 400 12.3894 0 400 13.2743 0 400 14.1593
0 400 15.0442 0 400 15.9292 0 400 16.8142 0
400 17.6991 0 400 18.5841 0 400 19.469 0 400
20.354 0 400 21.2389 0 400 22.1239 0 400 23.0088
0 400 23.8938 0 400 24.7788 0 400 25.6637 0
400 26.5487 0 400 27.4336 0 400 28.3186 0 400
29.2035 0 400 30.0885 0 400 30.9735 0 400 31.8584
0 400 32.7434 0 400 33.6283 0 400 34.5133 0
400 35.3982 0 400 36.2832 0 400 37.1681 0 400
38.0531 0 400 38.9381 0 400 39.823 0 400 40.708
0 400 41.5929 0 400 42.4779 0 400 43.3628 0
400 44.2478 0 400 45.1327 0 400 46.0177 0 400
46.9027 0 400 47.7876 0 400 48.6726 0 400 49.5575
0 400 50.4425 0 400 51.3274 0 400 52.2124 0
400 53.0973 0 400 53.9823 0 400 54.8673 0 400
55.7522 0 400 56.6372 0 400 57.5221 0 400 58.4071
0 400 59.292 0 400 60.177 0 400 61.0619 0
400 61.9469 0 400 62.8319 0 400 63.7168 0 400
64.6018 0 400 65.4867 0 400 66.3717 0 400 67.2566
0 400 68.1416 0 400 69.0265 0 400 69.9115 0
400 70.7965 0 400 71.6814 0 400 72.5664 0 400
73.4513 0 400 74.3363 0 400 75.2212 0 400 76.1062
0 400 76.9912 0 400 77.8761 0 400 78.7611 0
400 79.646 0 400 80.531 0 400 81.4159 0 400
82.3009 0 400 83.1858 0 400 84.0708 0 400 84.9558
0 400 85.8407 0 400 86.7257 0 400 87.6106 0
400 88.4956 0 400 89.3805 0 400 90.2655 0 400
91.1504 0 400 92.0354 0 400 92.9204 0 400 93.8053
0 400 94.6903 0 400 95.5752 0 400 96.4602 0
400 97.3451 0 400 98.2301 0 400 99.115 0 400
100 0.862069 400 100 1.72414 400 100 2.58621 400 100
3.44828 400 100 4.31034 400 100 5.17241 400 100 6.03448
400 100 6.89655 400 100 7.75862 400 100 8.62069 400
100 9.48276 400 100 10.3448 400 100 11.2069 400 100
12.069 400 100 12.931 400 100 13.7931 400 100 14.6552
400 100 15.5172 400 100 16.3793 400 100 17.2414 400
100 18.1034 400 100 18.9655 400 100 19.8276 400 100
20.6897 400 100 21.5517 400 100 22.4138 400 100 23.2759
400 100 24.1379 400 99.115 25 400 98.2301 25 400
97.3451 25 400 96.4602 25 400 95.5752 25 400 94.6903
25 400 93.8053 25 400 92.9204 25 400 92.0354 25
400 91.1504 25 400 90.2655 25 400 89.3805 25 400
88.4956 25 400 87.6106 25 400 86.7257 25 400 85.8407
25 400 84.9558 25 400 84.0708 25 400 83.1858 25
400 82.3009 25 400 81.4159 25 400 80.531 25 400
79.646 25 400 78.7611 25 400 77.8761 25 400 76.9912
25 400 76.1062 25 400 75.2212 25 400 74.3363 25
400 73.4513 25 400 72.5664 25 400 71.6814 25 400
70.7965 25 400 69.9115 25 400 69.0265 25 400 68.1416
25 400 67.2566 25 400 66.3717 25 400 65.4867 25
400 64.6018 25 400 63.7168 25 400 62.8319 25 400
61.9469 25 400 61.0619 25 400 60.177 25 400 59.292
25 400 58.4071 25 400 57.5221 25 400 56.6372 25
400 55.7522 25 400 54.8673 25 400 53.9823 25 400
53.0973 25 400 52.2124 25 400 51.3274 25 400 50.4425
25 400 49.5575 25 400 48.6726 25 400 47.7876 25
400 46.9027 25 400 46.0177 25 400 45.1327 25 400
44.2478 25 400 43.3628 25 400 42.4779 25 400 41.5929
25 400 40.708 25 400 39.823 25 400 38.9381 25
400 38.0531 25 400 37.1681 25 400 36.2832 25 400
35.3982 25 400 34.5133 25 400 33.6283 25 400 32.7434
25 400 31.8584 25 400 30.9735 25 400 30.0885 25
400 29.2035 25 400 28.3186 25 400 27.4336 25 400
26.5487 25 400 25.6637 25 400 24.7788 25 400 23.8938
25 400 23.0088 25 400 22.1239 25 400 21.2389 25
400 20.354 25 400 19.469 25 400 18.5841 25 400
17.6991 25 400 16.8142 25 400 15.9292 25 400 15.0442
25 400 14.1593 25 400 13.2743 25 400 12.3894 25
400 11.5044 25 400 10.6195 25 400 9.73451 25 400
8.84956 25 400 7.9646 25 400 7.07965 25 400 6.19469
25 400 5.30973 25 400 4.42478 25 400 3.53982 25
400 2.65487 25 400 1.76991 25 400 0.884956 25 400
0 24.1379 400 0 23.2759 400 0 22.4138 400 0
21.5517 400 0 20.6897 400 0 19.8276 400 0 18.9655
400 0 18.1034 400 0 17.2414 400 0 16.3793 400
0 15.5172 400 0 14.6552 400 0 13.7931 400 0
12.931 400 0 12.069 400 0 11.2069 400 0 10.3448
400 0 9.48276 400 0 8.62069 400 0 7.75862 400
0 6.89655 400 0 6.03448 400 0 5.17241 400 0
4.31034 400 0 3.44828 400 0 2.58621 400 0 1.72414
400 0 0.862069 400 0.884956 0 403.75 1.76991 0 403.75
2.65487 0 403.75 3.53982 0 403.75 4.42478 0 403.75 5.30973
0 403.75 6.19469 0 403.75 7.07965 0 403.75 7.9646 0
403.75 8.84956 0 403.75 9.73451 0 403.75 10.6195 0 403.75
11.5044 0 403.75 12.3894 0 403.75 13.2743 0 403.75 14.1593
0 403.75 15.0442 0 403.75 15.9292 0 403.75 16.8142 0
403.75 17.6991 0 403.75 18.5841 0 403.75 19.469 0 403.75
20.354 0 403.75 21.2389 0 403.75 22.1239 0 403.75 23.0088
0 403.75 23.8938 0 403.75 24.7788 0 403.75 25.6637 0
403.75 26.5487 0 403.75 27.4336 0 403.75 28.3186 0 403.75
29.2035 0 403.75 30.0885 0 403.75 30.9735 0 403.75 31.8584
0 403.75 32.7434 0 403.75 33.6283 0 403.75 34.5133 0
403.75 35.3982 0 403.75 36.2832 0 403.75 37.1681 0 403.75
38.0531 0 403.75 38.9381 0 403.75 39.823 0 403.75 40.708
0 403.75 41.5929 0 403.75 42.4779 0 403.75 43.3628 0
403.75 44.2478 0 403.75 45.1327 0 403.75 46.0177 0 403.75
46.9027 0 403.75 47.7876 0 403.75 48.6726 0 403.75 49.5575
0 403.75 50.4425 0 403.75 51.3274 0 403.75 52.2124 0
403.75 53.0973 0 403.75 53.9823 0 403.75 54.8673 0 403.75
55.7522 0 403.75 56.6372 0 403.75 57.5221 0 403.75 58.4071
0 403.75 59.292 0 403.75 60.177 0 403.75 61.0619 0
403.75 61.9469 0 403.75 62.8319 0 403.75 63.7168 0 403.75
64.6018 0 403.75 65.4867 0 403.75 66.3717 0 403.75 67.2566
0 403.75 68.1416 0 403.75 69.0265 0 403.75 69.9115 0
403.75 70.7965 0 403.75 71.6814 0 403.75 72.5664 0 403.75
73.4513 0 403.75 74.3363 0 403.75 75.2212 0 403.75 76.1062
0 403.75 76.9912 0 403.75 77.8761 0 403.75 78.7611 0
403.75 79.646 0 403.75 80.531 0 403.75 81.4159 0 403.75
82.3009 0 403.75 83.1858 0 403.75 84.0708 0 403.75 84.9558
0 403.75 85.8407 0 403.75 86.7257 0 403.75 87.6106 0
403.75 88.4956 0 403.75 89.3805 0 403.75 90.2655 0 403.75
91.1504 0 403.75 92.0354 0 403.75 92.9204 0 403.75 93.8053
0 403.75 94.6903 0 403.75 95.5752 0 403.75 96.4602 0
403.75 97.3451 0 403.75 98.2301 0 403.75 99.115 0 403.75
100 0.862069 403.75 100 1.72414 403.75 100 2.58621 403.75 100
3.44828 403.75 100 4.31034 403.75 100 5.17241 403.75 100 6.03448
403.75 100 6.89655 403.75 100 7.75862 403.75 100 8.62069 403.75
100 9.48276 403.75 100 10.3448 403.75 100 11.2069 403.75 100
12.069 403.75 100 12.931 403.75 100 13.7931 403.75 100 14.6552
403.75 100 15.5172 403.75 100 16.3793 403.75 100 17.2414 403.75
100 18.1034 403.75 100 18.9655 403.75 100 19.8276 403.75 100
20.6897 403.75 100 21.5517 403.75 100 22.4138 403.75 100 23.2759
403.75 100 24.1379 403.75 99.115 25 403.75 98.2301 25 403.75
97.3451 25 403.75 96.4602 25 403.75 95.5752 25 403.75 94.6903
25 403.75 93.8053 25 403.75 92.9204 25 403.75 92.0354 25
403.75 91.1504 25 403.75 90.2655 25 403.75 89.3805 25 403.75
88.4956 25 403.75 87.6106 25 403.75 86.7257 25 403.75 85.8407
25 403.75 84.9558 25 403.75 84.0708 25 403.75 83.1858 25
403.75 82.3009 25 403.75 81.4159 25 403.75 80.531 25 403.75
79.646 25 403.75 78.7611 25 403.75 77.8761 25 403.75 76.9912
25 403.75 76.1062 25 403.75 75.2212 25 403.75 74.3363 25
403.75 73.4513 25 403.75 72.5664 25 403.75 71.6814 25 403.75
70.7965 25 403.75 69.9115 25 403.75 69.0265 25 403.75 68.1416
25 403.75 67.2566 25 403.75 66.3717 25 403.75 65.4867 25
403.75 64.6018 25 403.75 63.7168 25 403.75 62.8319 25 403.75
61.9469 25 403.75 61.0619 25 403.75 60.177 25 403.75 59.292
25 403.75 58.4071 25 403.75 57.5221 25 403.75 56.6372 25
403.75 55.7522 25 403.75 54.8673 25 403.75 53.9823 25 403.75
53.0973 25 403.75 52.2124 25 403.75 51.3274 25 403.75 50.4425
25 403.75 49.5575 25 403.75 48.6726 25 403.75 47.7876 25
403.75 46.9027 25 403.75 46.0177 25 403.75 45.1327 25 403.75
44.2478 25 403.75 43.3628 25 403.75 42.4779 25 403.75 41.5929
25 403.75 40.708 25 403.75 39.823 25 403.75 38.9381 25
403.75 38.0531 25 403.75 37.1681 25 403.75 36.2832 25 403.75
35.3982 25 403.75 34.5133 25 403.75 33.6283 25 403.75 32.7434
25 403.75 31.8584 25 403.75 30.9735 25 403.75 30.0885 25
403.75 29.2035 25 403.75 28.3186 25 403.75 27.4336 25 403.75
26.5487 25 403.75 25.6637 25 403.75 24.7788 25 403.75 23.8938
25 403.75 23.0088 25 403.75 22.1239 25 403.75 21.2389 25
403.75 20.354 25 403.75 19.469 25 403.75 18.5841 25 403.75
17.6991 25 403.75 16.8142 25 403.75 15.9292 25 403.75 15.0442
25 403.75 14.1593 25 403.75 13.2743 25 403.75 12.3894 25
403.75 11.5044 25 403.75 10.6195 25 403.75 9.73451 25 403.75
8.84956 25 403.75 7.9646 25 403.75 7.07965 25 403.75 6.19469
25 403.75 5.30973 25 403.75 4.42478 25 403.75 3.53982 25
403.75 2.65487 25 403.75 1.76991 25 403.75 0.884956 25 403.75
0 24.1379 403.75 0 23.2759 403.75 0 22.4138 403.75 0
21.5517 403.75 0 20.6897 403.75 0 19.8276 403.75 0 18.9655
403.75 0 18.1034 403.75 0 17.2414 403.75 0 16.3793 403.75
0 15.5172 403.75 0 14.6552 403.75 0 13.7931 403.75 0
12.931 403.75 0 12.069 403.75 0 11.2069 403.75 0 10.3448
403.75 0 9.48276 403.75 0 8.62069 403.75 0 7.75862 403.75
0 6.89655 403.75 0 6.03448 403.75 0 5.17241 403.75 0
4.31034 403.75 0 3.44828 403.75 0 2.58621 403.75 0 1.72414
403.75 0 0.862069 403.75 0 0 400.75 0 0 401.5
0 0 402.25 0 0 403 100 0 400.75 100
0 401.5 100 0 402.25 100 0 403 100 25
400.75 100 25 401.5 100 25 402.25 100 25 403
0 25 400.75 0 25 401.5 0 25 402.25 0
25 403 99.2489 12.4494 400 0.657714 12.4991 400 86.2832 24.2336
400 81.8584 24.2336 400 77.4336 24.2336 400 73.0088 24.2336 400
68.5841 24.2336 400 64.1593 24.2336 400 13.8154 0.688288 400 18.1416
0.741646 400 22.5664 0.766394 400 26.9911 0.740504 400 37.6106 0.739134
400 42.9204 0.766394 400 48.2301 0.766394 400 52.6549 0.737191 400
57.9646 0.766394 400 31.4159 0.766395 400 34.0708 24.2336 400 40.2655
[...]
<PointData>
<DataArray type="Float64" Name="press" NumberOfComponents="1" format="ascii">
10 32.6385 46.1296 21.1638 10 32.6383 46.0856 21.1639 14.6415 16.0728
16.9846 17.669 18.2049 18.6427 19.019 19.3495 19.6462 19.9159 20.1615 20.3911
20.6074 20.8113 21.0059 21.1919 21.3712 21.5439 21.7123 21.8754 22.0347 22.191
22.344 22.4943 22.6424 22.7884 22.9327 23.0754 23.2167 23.3567 23.4957 23.6337
23.7708 23.9072 24.0428 24.1779 24.3124 24.4464 24.5801 24.7133 24.8462 24.9788
25.1111 25.2431 25.375 25.5066 25.6381 25.7694 25.9006 26.0316 26.1625 26.2932
26.4239 26.5545 26.6849 26.8153 26.9456 27.0757 27.2058 27.3358 27.4657 27.5954
27.7251 27.8546 27.984 28.1133 28.2424 28.3713 28.5 28.6285 28.7568 28.8848
29.0125 29.1399 29.2669 29.3935 29.5196 29.6453 29.7704 29.8949 30.0186 30.1416
30.2637 30.3848 30.505 30.6239 30.7416 30.8576 30.9721 31.085 31.1961 31.3049
31.4113 31.515 31.6163 31.7145 31.8092 31.9003 31.9876 32.0706 32.1492 32.2231
32.2921 32.3554 32.4131 32.4643 32.5092 32.5475 32.58 32.6056 32.6241 32.6348
32.6418 32.6528 32.67 32.6942 32.726 32.7655 32.8121 32.8669 32.9306 33.0025
33.0843 33.176 33.279 33.3935 33.5213 33.6638 33.8228 34.0014 34.2013 34.4276
34.6903 34.9868 35.3323 35.7579 36.2675 36.9316 37.9033 39.5935 39.5532 37.7797
36.8641 36.1613 35.6288 35.1856 34.8055 34.4747 34.1742 33.9023 33.6523 33.421
33.2038 32.9973 32.8009 32.6127 32.4321 32.2575 32.0885 31.9239 31.763 31.6056
31.4516 31.3002 31.1509 31.0039 30.8587 30.7151 30.5728 30.432 30.2922 30.1535
30.0157 29.8786 29.7423 29.6067 29.4715 29.3369 29.2028 29.0691 28.9357 28.8027
28.67 28.5375 28.4054 28.2734 28.1416 28.0101 27.8787 27.7475 27.6164 27.4855
27.3547 27.224 27.0935 26.9631 26.8328 26.7027 26.5726 26.4427 26.313 26.1833
26.0538 25.9244 25.7953 25.6662 25.5374 25.4088 25.2803 25.1521 25.0242 24.8966
24.7693 24.6423 24.5158 24.3896 24.2639 24.1388 24.0142 23.8903 23.7671 23.6447
23.5232 23.4026 23.2832 23.1648 23.0478 22.9323 22.8184 22.7062 22.596 22.4879
22.3822 22.2789 22.1785 22.0811 21.9871 21.8966 21.81 21.7272 21.6492 21.5759
21.5077 21.445 21.3877 21.3368 21.292 21.2531 21.2217 21.1967 21.1785 21.1673
21.1604 21.1494 21.1328 21.108 21.077 21.0379 20.9917 20.9375 20.8751 20.8037
20.7226 20.6324 20.5309 20.4173 20.2905 20.1499 19.9912 19.8173 19.6174 19.3941
19.1389 18.8435 18.4992 18.0885 17.5737 16.9012 15.9906 14.5292 14.6243 16.029
16.994 17.6752 18.2112 18.6437 19.0206 19.3507 19.6464 19.9152 20.1613 20.3911
20.6061 20.8114 21.0062 21.1925 21.3715 21.5443 21.7122 21.8751 22.0349 22.1908
22.344 22.4942 22.6424 22.7884 22.9327 23.0754 23.2167 23.3567 23.4957 23.6337
23.7707 23.9072 24.0428 24.1779 24.3124 24.4465 24.5801 24.7133 24.8462 24.9788
25.1111 25.2432 25.375 25.5066 25.6381 25.7694 25.9006 26.0316 26.1625 26.2932
26.4239 26.5545 26.6849 26.8153 26.9456 27.0757 27.2058 27.3358 27.4657 27.5955
27.7251 27.8546 27.984 28.1133 28.2424 28.3713 28.5 28.6285 28.7568 28.8847
29.0125 29.1399 29.2668 29.3935 29.5196 29.6453 29.7703 29.8948 30.0186 30.1416
30.2638 30.3849 30.505 30.6239 30.7415 30.8577 30.9724 31.0852 31.1959 31.3049
31.4114 31.5152 31.6163 31.7145 31.8091 31.9003 31.9874 32.0706 32.1493 32.2232
32.2918 32.3546 32.4128 32.4643 32.5096 32.5488 32.5806 32.6056 32.623 32.6348
32.6416 32.6523 32.6697 32.6948 32.7263 32.7653 32.8119 32.8671 32.9312 33.0029
33.0847 33.1764 33.2788 33.3927 33.5215 33.6632 33.8223 34.0018 34.2022 34.4298
34.6865 34.9889 35.3322 35.755 36.2709 36.9247 37.8801 39.6024 39.4576 37.7839
36.8663 36.1697 35.6301 35.1872 34.8045 34.4702 34.1717 33.9024 33.6537 33.421
33.2029 32.9968 32.8011 32.6131 32.4326 32.2576 32.0885 31.9238 31.763 31.6056
31.4519 31.3003 31.151 31.0039 30.8586 30.7151 30.5729 30.432 30.2923 30.1535
30.0157 29.8786 29.7423 29.6066 29.4715 29.3369 29.2027 29.0691 28.9357 28.8027
28.67 28.5375 28.4054 28.2734 28.1416 28.0101 27.8787 27.7475 27.6164 27.4855
27.3547 27.2241 27.0935 26.9631 26.8328 26.7027 26.5726 26.4427 26.313 26.1833
26.0538 25.9244 25.7953 25.6662 25.5374 25.4088 25.2803 25.1522 25.0242 24.8966
24.7693 24.6423 24.5158 24.3896 24.2639 24.1388 24.0142 23.8903 23.7671 23.6447
23.5231 23.4026 23.2832 23.1649 23.048 22.9324 22.8183 22.7063 22.5959 22.4879
22.3822 22.2789 22.1785 22.0811 21.9868 21.8963 21.8096 21.7277 21.6495 21.5758
21.5075 21.4449 21.3878 21.3367 21.2923 21.2533 21.2214 21.1965 21.1784 21.1678
21.1605 21.1503 21.1326 21.1082 21.0767 21.0382 20.9923 20.9377 20.8751 20.8035
20.7227 20.6326 20.5312 20.4178 20.2904 20.1499 19.992 19.8168 19.6166 19.3924
19.1401 18.8465 18.4991 18.0885 17.5837 16.9231 16.0013 14.5099 10 10
10 10 32.6383 32.6383 32.6385 32.6383 43.6189 42.6663 43.2137 43.6603
21.164 21.1639 21.164 21.1641 33.4432 20.3595 32.7023 31.8415 31.0763 30.3615
29.6742 29.0022 21.1225 21.9567 22.7163 23.4268 25.0451 25.835 26.6198 27.2709
28.0487 24.1107 24.5789 25.473 26.2481 27.68 31.9458 21.8452 28.6928 28.3393
26.8979 29.3304 29.9571 30.5651 31.1418 23.8283 23.2162 22.6435 33.7664 20.0471
21.4725 32.3265 31.5673 22.2213 20.7635 33.031 34.0933 19.7445 18.8608 34.969
32.7844 21.0165 35.1437 18.6924 21.3107 32.4933 24.5135 24.9603 24.2011 25.8598
27.2893 27.6603 26.2279 25.4409 21.2056 32.5981 17.4185 36.5119 32.6752 21.124
36.5082 17.3603 34.3076 21.6093 32.1884 20.506 19.5119 33.3033 31.7635 22.4275
22.0268 28.7343 28.9488 30.3248 29.7081 30.9156 23.455 22.9824 31.3594 28.4357
26.6376 28.0739 25.2161 27.0107 24.7799 29.3954 31.5252 32.3391 30.0753 30.7768
23.7026 21.6352 22.2689 23.1467 33.7507 20.0877 20.5917 33.2212 32.8965 20.9117
34.5407 19.2729 21.17 32.6326 15.8143 38.1469 21.1843 21.1865 21.2107 21.1842
21.2125 21.1795 21.2125 21.1724 21.2085 21.1619 21.2028 21.1492 21.1948 21.1338
21.185 21.1165 21.1718 21.0964 21.1592 21.0769 21.1452 21.0583 21.1324 21.039
21.119 21.0179 21.1065 21.0002 21.0954 21.1984 21.1949 21.2967 21.3006 21.3993
21.408 21.5053 21.5193 21.6141 21.6332 21.7261 21.7501 21.8407 21.8684 21.9566
21.9884 22.0745 22.11 22.1945 22.2327 22.3155 22.3564 22.4377 22.4809 22.5604
22.6065 22.6847 22.7323 22.8092 22.8588 22.9347 22.986 23.061 23.1133 23.187
23.2409 23.314 23.3693 23.4415 23.4977 23.5689 23.6257 23.6966 23.7547 23.8247
23.8836 23.9531 24.0123 24.0814 24.1413 24.2104 24.2706 24.3395 24.4 24.4681
24.5293 24.5975 24.6592 24.727 24.789 24.8559 24.9182 24.9856 25.0482 25.1154
25.1782 25.2447 25.3075 25.3743 25.4377 25.5041 25.5678 25.6339 25.6973 25.7636
25.8276 25.8939 25.9579 26.0241 26.0875 26.1536 26.2179 26.284 26.3482 26.4143
26.4779 26.544 26.6084 26.6742 26.7388 26.8044 26.8685 26.9349 26.9988 27.0654
27.129 27.1952 27.2598 27.326 27.3904 27.4566 27.5202 27.5865 27.651 27.7174
27.7817 27.8481 27.9117 27.9783 28.042 28.1088 28.1725 28.2394 28.3031 28.3705
28.4337 28.5015 28.5644 28.6318 28.6951 28.7631 28.8259 28.8943 28.9566 29.0249
29.0874 29.156 29.2183 29.2872 29.3492 29.4185 29.4802 29.55 29.6112 29.6815
29.7424 29.8132 29.8735 29.945 30.0047 30.077 30.136 30.209 30.2674 30.3412
30.3989 30.4737 30.5303 30.6064 30.6619 30.739 30.7936 30.872 30.925 31.0051
31.0568 31.1386 31.1887 31.2721 31.32 31.4054 31.4516 31.5393 31.5833 31.6732
31.7144 31.8071 31.8454 31.9407 31.9752 32.0741 32.1047 32.2071 32.2332 32.3393
32.3608 32.4708 32.4862 21.4195 20.9841 22.6533 23.9426 25.2413 26.0219 21.8986
26.8027 27.4548 28.2367 23.167 29.1497 30.1951 24.4612 30.8476 32.2555 29.672
31.4965 32.6004 32.6085 32.7284 32.7292 32.8541 32.8468 32.7273 32.5865 31.903
31.2219 30.5495 29.8846 29.2253 28.5691 27.9145 27.1318 26.4802 25.7003 24.7944
21.4918 24.0221 22.7604 21.9259 23.5125 32.8356 32.72 31.8805 32.9759 22.2724
22.2752 23.134 23.5545 24.4077 24.8513 25.1821 25.6315 26.4124 26.0904 27.8454
27.5231 28.6275 32.9857 32.8219 32.7103 33.1133 33.1279 32.8031 32.698 33.2635
21.2338 33.2798 20.8862 20.8648 32.7839 32.6838 32.5997 32.5919 32.5083 33.4233
32.6701 32.5062 32.4224 20.7637 20.7364 33.4433 33.597 32.8895 33.3928 33.2882
20.6314 20.5977 20.7131 20.5677 20.6955 20.5469 20.6839 20.5331 20.6811 20.3862
20.3695 20.2123 32.4249 32.3413 20.6709 33.4526 33.283 20.4877 20.1924 20.0251
32.3495 32.2662 32.4282 32.2537 32.1783 32.1617 32.0853 32.0644 31.9894 31.9644
31.8893 31.8607 31.7865 31.7545 31.6807 31.6456 31.5722 31.5342 31.4616 31.4206
31.3487 31.3058 31.2338 31.1887 31.1174 31.0703 30.9996 30.9505 30.8803 30.8295
30.7598 30.7077 30.6382 30.5848 30.5157 30.4611 30.3924 30.3366 30.2683 30.2116
30.1435 30.086 30.0181 29.9598 29.8921 29.8332 29.7657 29.7061 29.6388 29.5786
29.5116 29.4509 29.3839 29.3228 29.256 29.1945 29.1278 29.066 28.9994 28.9372
28.8708 28.8083 28.742 28.6792 28.613 28.55 28.4838 28.4207 28.3545 28.2912
28.2251 28.1616 28.0956 28.0319 27.9659 27.9022 27.8362 27.7723 27.7064 27.6424
27.5765 27.5124 27.4465 27.3824 27.3165 27.2523 27.1864 27.1221 27.0562 26.992
26.926 26.8617 26.7957 26.7314 26.6654 26.601 26.535 26.4706 26.4046 26.3402
26.274 26.2097 26.1434 26.0791 26.0128 25.9484 25.882 25.8177 25.7512 25.6869
25.6203 25.5561 25.4892 25.4251 25.3581 25.294 25.2268 25.1628 25.0954 25.0315
24.9638 24.9 24.8321 24.7684 24.7002 24.6365 24.568 24.5045 24.4356 24.3722
24.3029 24.2397 24.1699 24.1069 24.0366 23.9738 23.9029 23.8404 23.7687 23.7065
23.6341 23.5723 23.499 23.4375 23.3633 23.3023 23.2268 23.1662 23.0897 23.0295
22.9515 22.8922 22.8127 22.7542 22.6729 22.6151 22.5319 22.4748 22.3895 22.334
22.2458 22.1919 22.1005 22.0484 21.9536 21.9034 21.8053 21.7565 21.6537 21.6081
21.5008 20.991 33.4487 33.2703 21.5493 21.3908 22.5906 23.0124 23.9663 24.3666
25.2914 25.685 26.0775 26.4693 26.8605 27.511 27.9004 28.2889 32.1951 29.1899
29.5721 30.2009 30.8119 22.1561 20.004 20.1882 19.8171 19.855 19.6346 23.5614
24.8963 28.805 31.9178 31.2792 21.4584 22.8344 27.0579 24.1766 30.406 31.0224
28.8748 29.3899 29.9009 31.6103 21.2496 19.694 20.8226 33.4309 33.2451 33.6219
33.096 33.0644 32.9232 32.8841 32.7557 32.7132 32.5914 32.5445 32.4289 32.3794
32.2701 32.2185 32.1144 32.0607 31.9606 31.9058 31.8095 31.753 31.6603 31.6023
31.513 31.4543 31.3676 31.3077 31.2236 31.1635 31.0809 31.0203 30.9397 30.8779
30.7992 30.7373 30.66 30.5977 30.5217 30.4595 30.3843 30.3212 30.2473 30.1833
30.1116 30.0479 29.9764 29.9123 29.8409 29.7775 29.7064 29.6425 29.5722 29.5075
29.439 29.3745 29.3053 29.2411 29.1718 29.1083 29.0395 28.9752 28.907 28.8419
28.7747 28.7103 28.6428 28.5783 28.511 28.4468 28.3794 28.3152 28.2479 28.1834
28.1165 28.052 27.9853 27.9208 27.8542 27.79 27.7233 27.6591 27.5925 27.528
27.4617 27.3975 27.3311 27.2669 27.2006 27.1362 27.0701 27.0057 26.9397 26.8754
26.8095 26.7454 26.6794 26.6153 26.5493 26.4851 26.4193 26.3553 26.2894 26.2256
26.1596 26.0957 26.0299 25.9662 25.9004 25.8368 25.7709 25.7073 25.6416 25.5782
25.5124 25.4491 25.3834 25.3203 25.2545 25.1917 25.1259 25.0633 24.9974 24.9351
24.8691 24.807 24.7411 24.6794 24.6134 24.552 24.486 24.4249 24.3588 24.2982
24.232 24.1719 24.1057 24.0461 23.9798 23.9208 23.8544 23.7961 23.7296 23.6719
23.6053 23.5485 23.4818 23.4259 23.3591 23.3041 23.2372 23.1834 23.1162 23.0636
22.9963 22.9451 22.8775 22.8278 22.76 22.7121 22.6443 22.5979 22.5299 22.4856
22.4174 22.3753 22.307 22.267 22.1989 22.1615 22.0931 22.0587 21.9897 21.9584
21.8898 21.862 21.7933 21.7687 21.7 21.6793 21.5671 21.9988 22.4204 23.2421
32.1442 23.6448 24.5729 24.9674 25.3611 21.4419 21.2776 25.7536 26.1454 26.5367
31.8316 27.5784 27.9681 28.357 31.4953 19.7989 21.0655 19.4509 32.8377 32.002
31.2454 30.5328 20.8285 20.9648 29.8469 29.1753 28.5125 21.6108 21.5944 27.8549
27.4621 27.0701 26.4195 26.0303 25.6422 24.7435 24.3624 23.985 23.6128 21.6579
21.5765 22.7765 33.3989 19.538 25.1274 19.7653 32.9397 19.3869 19.1792 19.1122
21.2293 21.1092 32.8637 32.9713 32.9356 33.0443 32.9999 33.1078 33.1614 32.4964
23.9113 31.2367 30.586 30.7782 26.7974 27.3183 29.9332 29.4108 28.8886 28.6163
28.7755 30.1545 28.1171 27.1209 28.5473 29.4421 29.1327 27.0631 26.8097 30.1184
29.6459 25.3844 29.8252 24.6318 30.8141 24.2016 30.4479 23.2884 32.9004 32.9563
32.8658 32.9157 32.8324 31.5413 31.2618 31.0484 22.9096 23.3685 21.8573 32.3236
21.6556 23.128 32.3577 32.4316 32.3666 32.4357 32.5001 32.499 21.2958 20.8328
21.2191 22.5502 32.6135 22.3315 21.7032 22.1225 21.9264 22.5157 32.3144 23.7666
25.4408 26.7404 28.1759 28.8389 29.5023 31.7151 30.174 30.8598 21.3328 21.4983
33.224 33.2864 32.4412 32.5005 32.5568 32.5528 32.6072 32.5994 32.6517 32.6394
19.6369 19.8527 18.8719 21.1098 33.3489 33.4233 18.7992 19.0738 33.0048 32.8758
33.3484 33.4956 33.5715 33.657 21.394 21.2217 21.5604 21.0642 20.9374 21.421
21.5309 33.1302 22.2362 21.7214 21.9183 32.6888 23.0478 22.46 23.4141 22.6907
32.3174 24.2923 21.5269 21.5398 24.6749 32.6317 25.0599 23.6623 23.913 25.9641
26.3534 27.0041 25.3175 27.3955 25.5757 27.7877 28.4437 26.6134 28.9623 29.6202
28.0497 30.2827 31.1401 29.1033 29.77 30.4461 31.4933 31.425 30.9517 21.6357
21.5579 21.4997 21.4853 32.5941 32.6293 32.4485 32.3881 19.3944 32.0125 21.142
19.7483 19.9466 18.5133 33.276 20.8963 20.7596 20.8068 20.619 20.6727 20.4736
33.7329 33.8328 20.9361 20.2433 32.6168 21.2514 21.6724 21.6369 21.7742 21.4994
32.4192 33.7382 33.9298 34.0289 34.1426 21.7179 34.0214 34.2448 34.3761 34.4994
34.3373 34.604 34.4109 34.6884 34.4611 34.91 34.9978 21.194 20.6854 32.7815
21.0275 35.2661 34.2083 21.4284 21.4182 34.2357 34.4823 34.2338 21.691 21.7747
35.3583 34.4688 34.2033 18.6458 18.7681 19.0781 19.8602 20.041 32.5914 32.6227
32.6578 21.4604 21.628 21.7236 21.7903 21.8824 21.9493 22.038 22.1049 22.1906
22.2576 22.341 22.4077 22.489 22.5555 22.6351 22.7013 22.7794 22.8457 22.9221
22.9882 23.0636 23.1293 23.2037 23.2695 23.3427 23.4084 23.4807 23.5464 23.618
23.6835 23.7543 23.8198 23.89 23.9555 24.0252 24.0906 24.1598 24.2251 24.2939
24.3591 24.4275 24.4928 24.5608 24.626 24.6938 24.7589 24.8264 24.8915 24.9588
25.0238 25.0909 25.1559 25.2227 25.2878 25.3544 25.4194 25.486 25.5509 25.6173
25.6822 25.7485 25.8134 25.8795 25.9445 26.0105 26.0754 26.1413 26.2062 26.2721
26.3369 26.4027 26.4675 26.5332 26.598 26.6637 26.7284 26.7941 26.8587 26.9244
26.989 27.0546 27.1191 27.1847 27.2492 27.3147 27.3792 27.4446 27.509 27.5745
27.6388 27.7042 27.7685 27.8338 27.898 27.9634 28.0274 28.0927 28.1567 28.222
28.2858 28.3511 28.4148 28.48 28.5435 28.6087 28.6721 28.7373 28.8004 28.8655
28.9285 28.9936 29.0563 29.1212 29.1837 29.2487 29.3108 29.3757 29.4375 29.5024
29.5638 29.6286 29.6896 29.7543 29.8148 29.8794 29.9394 30.0039 30.0634 30.1277
30.1866 30.2508 30.3088 30.373 30.4301 30.4941 30.5505 30.6143 30.6697 30.7332
30.7876 30.8506 30.9038 30.9669 31.0188 31.0815 31.1321 31.1943 31.2433 31.3049
31.3524 31.4133 31.4593 31.52 31.5631 31.6233 31.6646 31.7241 31.7624 31.8214
31.8575 31.9154 31.9482 32.0054 32.0359 32.0921 32.1194 32.5533 33.4013 32.8008
32.8375 32.9104 20.0471 33.4071 20.4253 20.2662 33.2621 35.1214 32.1733 32.1957
21.5377 21.455 21.4631 21.7385 21.8722 20.3263 20.1065 20.0493 19.8714 35.6857
32.4005 19.9765 20.1403 20.2085 20.2947 20.3626 20.4343 20.3796 20.5073 20.5621
20.6242 20.5764 20.6829 20.7327 20.7823 20.7417 20.8316 19.6595 33.3187 18.2426
18.0989 20.7971 20.8771 22.46 22.8978 23.8713 24.2763 25.2068 20.9145 25.6017
25.9952 26.3876 26.779 27.4296 27.8187 28.2067 29.1052 29.4858 20.9522 20.9212
20.9877 30.132 30.734 34.4238 34.1493 33.9555 34.722 33.8952 21.7433 32.0594
19.82 32.6464 33.3111 20.7235 20.9787 21.1076 21.0929 31.9763 32.8668 32.8032
32.5577 31.6863 33.2069 33.6364 33.7957 31.3688 21.4374 21.3685 34.6421 33.0935
34.0123 21.552 30.5591 29.9446 25.4212 25.8148 26.2074 26.5991 29.314 25.026
27.2503 27.64 28.9309 28.0289 24.0949 23.6893 22.7147 22.277 21.9109 22.0057
20.8621 20.7368 32.954 32.458 32.4162 33.4653 32.2924 21.9741 33.0055 20.9284
20.799 20.9711 22.0475 22.139 22.1838 22.2725 22.3194 22.4059 32.9897 20.2886
23.1388 22.4548 22.539 22.5894 22.6719 22.7241 22.8046 23.4159 21.2291 21.2136
21.3439 21.0839 22.8583 22.9371 22.9921 23.0696 23.1256 23.2018 24.496 31.1458
24.7615 30.9154 23.2587 23.3338 23.3916 23.4656 23.5243 23.5973 23.6566 23.7288
23.7887 23.8602 23.9206 23.9915 24.0524 24.1226 24.184 24.2537 24.3154 24.3846
24.4467 24.5155 24.5779 24.6464 24.709 24.7771 24.84 24.9078 24.9709 25.0384
25.1017 25.169 25.2324 25.2995 25.3631 25.43 25.4937 25.5605 25.6243 25.6909
25.7548 25.8214 25.8853 25.9517 26.0158 26.0821 26.1462 26.2125 26.2766 26.3428
26.407 26.4731 26.5373 26.6034 26.6676 26.7337 26.7979 26.864 26.9282 26.9943
27.0585 27.1245 27.1887 27.2547 27.3189 27.385 27.4491 27.5152 27.5792 27.6454
27.7093 27.7755 27.8396 27.9057 27.9697 28.0358 28.0996 28.1659 28.2294 28.2966
28.3594 28.4267 28.4893 28.5561 28.6189 28.6859 28.7487 28.8158 28.8783 28.9456
29.0078 29.0753 29.1372 29.205 29.2665 29.3345 29.3957 29.464 29.5246 29.5933
29.6534 29.7225 29.7821 29.8515 29.9104 29.9803 30.0385 30.1089 30.1663 30.2378
30.2938 30.366 30.4208 30.4932 30.5474 30.6204 30.6736 30.7473 30.7991 30.8746
30.9243 31.0005 31.0485 31.1252 31.1714 31.2493 31.2936 31.3726 31.4148 31.4957
31.5347 31.6177 31.6529 31.736 31.7695 31.8542 31.884 31.9709 31.9965 32.0848
32.1059 32.1968 32.2133 32.3052 26.99 30.3159 28.4165 28.6741 29.6939 22.0973
21.1276 22.4903 21.471 21.5648 21.2034 19.338 19.6216 18.4436 18.8088 23.4079
34.4903 22.7525 23.8004 23.0148 24.7146 25.1058 24.0618 32.3357 32.3208 24.323
25.4969 21.3827 25.8878 26.2787 26.6695 27.3209 27.7116 32.0612 26.9301 28.1027
28.4931 21.372 33.9871 31.7016 28.7531 29.0132 30.438 29.2731 29.5327 31.0772
29.7921 32.2927 30.0513 30.695 31.3298 33.7232 33.6575 35.7773 36.2099 35.397
21.6636 33.5002 33.4387 33.2898 33.2347 33.0914 33.0283 32.4029 32.4108 32.8991
32.8285 32.7125 32.6427 32.535 32.4671 32.3632 32.3011 32.1961 32.1305 32.031
31.9608 31.8686 31.7995 31.7124 31.6459 31.5602 31.4977 31.41 31.3449 31.2598
31.1905 31.1107 31.0431 30.966 30.8979 30.8227 30.7546 30.6794 30.6125 30.5385
30.4719 30.3986 30.3323 30.2608 30.1938 30.1231 30.056 29.985 29.9189 29.8486
29.7827 29.7128 29.6472 29.5785 29.5121 29.444 29.3776 29.309 29.2434 29.1751
29.1097 29.0417 28.9763 28.9087 28.8456 28.7759 28.7173 28.6434 28.5834 28.5112
28.4469 28.3793 28.3142 28.2474 28.1845 28.1158 28.0573 27.9843 27.9245 27.8531
27.7911 27.7224 27.6638 27.591 27.5313 27.4601 27.3962 27.3295 27.2649 27.1988
27.1342 27.0683 27.0037 26.9379 26.8734 26.8077 26.7432 26.6775 26.6131 26.5475
26.4832 26.4176 26.3533 26.2878 26.2236 26.1581 26.094 26.0286 25.9646 25.8992
25.8353 25.77 25.7062 25.6409 25.5773 25.512 25.4485 25.3833 25.3199 25.2548
25.1916 25.1266 25.0635 24.9985 24.9357 24.8708 24.8082 24.7433 24.681 24.6162
24.5542 24.4895 24.4278 24.3632 24.3017 24.2373 24.1763 24.1119 24.0513 23.9872
23.9269 23.8629 23.8033 23.7393 23.6803 23.6166 23.5582 23.4948 23.437 23.3738
23.3169 23.2538 23.1978 23.1351 23.08 23.0175 22.9635 22.9015 22.8488 22.7869
22.7355 22.674 22.624 22.5633 22.5145 22.4543 22.4071 22.3478 22.3025 22.244
22.2004 22.1428 22.1016 22.0446 22.0056 21.9507 21.9138 32.8268 32.7706 20.712
20.9626 21.0223 32.9565 32.0621 31.2794 30.5531 21.1625 29.8602 29.1852 28.5222
32.9357 32.9883 27.8698 32.677 27.4705 27.0695 26.4188 32.6965 32.7141 20.9998
20.8329 20.7897 26.0299 18.7968 18.4356 19.1178 25.6424 32.7083 20.0131 20.4396
24.7532 32.0204 20.585 31.6879 24.3735 21.2423 23.9981 30.6012 32.1507 28.1634
27.7737 23.6285 20.0873 19.9168 21.3063 26.3408 25.9498 25.558 25.1656 24.7723
33.1675 24.3779 21.804 22.231 23.4507 22.6423 23.0485 21.0811 21.5274 21.3595
21.8434 22.9555 22.1574 21.8369 21.7072 22.8021 23.7999 23.3213 24.174 32.47
23.5979 24.5528 34.7649 24.935 17.7582 17.601 17.1416 24.6771 25.8355 33.809
24.9425 26.224 21.7124 26.6136 27.2652 27.6576 28.3142 28.9749 27.1696 29.6452
30.3277 33.772 31.0344 33.1542 28.5932 28.8497 31.7811 32.602 29.862 30.4965
31.0797 31.3008 31.8846 31.5129 31.6962 33.4416 33.2397 33.1389 35.973 33.6784
21.4115 20.8554 32.6193 32.6389 33.8265 33.9653 32.4302 18.4939 19.916 35.7596
35.3748 21.0011 21.0538 34.6819 34.0907 16.9615 20.8946 33.5925 32.5779 31.731
30.9772 30.2672 29.583 18.6689 18.9939 18.2379 28.9135 18.0031 20.7723 28.2517