<VTKFile type="UnstructuredGrid" version="1.0">
<UnstructuredGrid>
<FieldData>
<DataArray type="Float64" Name="TIME" NumberOfTuples="1" format="ascii" RangeMin="2.9" RangeMax="2.9">
2.9
</DataArray>
</FieldData>
<Piece NumberOfPoints="15756" NumberOfCells="12500">
<Points>
<DataArray type="Float64" NumberOfComponents="3" format="ascii">
0 0 400 100 0 400 100 25 400 0
25 400 0 0 403.75 100 0 403.75 100 25
403.75 0 25 403.75 1 0 400 2 0 400
3 0 400 4 0 400 5 0 400 6
0 400 7 0 400 8 0 400 9 0
400 10 0 400 11 0 400 12 0 400
13 0 400 14 0 400 15 0 400 16
0 400 17 0 400 18 0 400 19 0
400 20 0 400 21 0 400 22 0 400
23 0 400 24 0 400 25 0 400 26
0 400 27 0 400 28 0 400 29 0
400 30 0 400 31 0 400 32 0 400
33 0 400 34 0 400 35 0 400 36
0 400 37 0 400 38 0 400 39 0
400 40 0 400 41 0 400 42 0 400
43 0 400 44 0 400 45 0 400 46
0 400 47 0 400 48 0 400 49 0
400 50 0 400 51 0 400 52 0 400
53 0 400 54 0 400 55 0 400 56
0 400 57 0 400 58 0 400 59 0
400 60 0 400 61 0 400 62 0 400
63 0 400 64 0 400 65 0 400 66
0 400 67 0 400 68 0 400 69 0
400 70 0 400 71 0 400 72 0 400
73 0 400 74 0 400 75 0 400 76
0 400 77 0 400 78 0 400 79 0
400 80 0 400 81 0 400 82 0 400
83 0 400 84 0 400 85 0 400 86
0 400 87 0 400 88 0 400 89 0
400 90 0 400 91 0 400 92 0 400
93 0 400 94 0 400 95 0 400 96
0 400 97 0 400 98 0 400 99 0
400 100 1 400 100 2 400 100 3 400
100 4 400 100 5 400 100 6 400 100
7 400 100 8 400 100 9 400 100 10
400 100 11 400 100 12 400 100 13 400
100 14 400 100 15 400 100 16 400 100
17 400 100 18 400 100 19 400 100 20
400 100 21 400 100 22 400 100 23 400
100 24 400 99 25 400 98 25 400 97
25 400 96 25 400 95 25 400 94 25
400 93 25 400 92 25 400 91 25 400
90 25 400 89 25 400 88 25 400 87
25 400 86 25 400 85 25 400 84 25
400 83 25 400 82 25 400 81 25 400
80 25 400 79 25 400 78 25 400 77
25 400 76 25 400 75 25 400 74 25
400 73 25 400 72 25 400 71 25 400
70 25 400 69 25 400 68 25 400 67
25 400 66 25 400 65 25 400 64 25
400 63 25 400 62 25 400 61 25 400
60 25 400 59 25 400 58 25 400 57
25 400 56 25 400 55 25 400 54 25
400 53 25 400 52 25 400 51 25 400
50 25 400 49 25 400 48 25 400 47
25 400 46 25 400 45 25 400 44 25
400 43 25 400 42 25 400 41 25 400
40 25 400 39 25 400 38 25 400 37
25 400 36 25 400 35 25 400 34 25
400 33 25 400 32 25 400 31 25 400
30 25 400 29 25 400 28 25 400 27
25 400 26 25 400 25 25 400 24 25
400 23 25 400 22 25 400 21 25 400
20 25 400 19 25 400 18 25 400 17
25 400 16 25 400 15 25 400 14 25
400 13 25 400 12 25 400 11 25 400
10 25 400 9 25 400 8 25 400 7
25 400 6 25 400 5 25 400 4 25
400 3 25 400 2 25 400 1 25 400
0 24 400 0 23 400 0 22 400 0
21 400 0 20 400 0 19 400 0 18
400 0 17 400 0 16 400 0 15 400
0 14 400 0 13 400 0 12 400 0
11 400 0 10 400 0 9 400 0 8
400 0 7 400 0 6 400 0 5 400
0 4 400 0 3 400 0 2 400 0
1 400 1 0 403.75 2 0 403.75 3 0
403.75 4 0 403.75 5 0 403.75 6 0 403.75
7 0 403.75 8 0 403.75 9 0 403.75 10
0 403.75 11 0 403.75 12 0 403.75 13 0
403.75 14 0 403.75 15 0 403.75 16 0 403.75
17 0 403.75 18 0 403.75 19 0 403.75 20
0 403.75 21 0 403.75 22 0 403.75 23 0
403.75 24 0 403.75 25 0 403.75 26 0 403.75
27 0 403.75 28 0 403.75 29 0 403.75 30
0 403.75 31 0 403.75 32 0 403.75 33 0
403.75 34 0 403.75 35 0 403.75 36 0 403.75
37 0 403.75 38 0 403.75 39 0 403.75 40
0 403.75 41 0 403.75 42 0 403.75 43 0
403.75 44 0 403.75 45 0 403.75 46 0 403.75
47 0 403.75 48 0 403.75 49 0 403.75 50
0 403.75 51 0 403.75 52 0 403.75 53 0
403.75 54 0 403.75 55 0 403.75 56 0 403.75
57 0 403.75 58 0 403.75 59 0 403.75 60
0 403.75 61 0 403.75 62 0 403.75 63 0
403.75 64 0 403.75 65 0 403.75 66 0 403.75
67 0 403.75 68 0 403.75 69 0 403.75 70
0 403.75 71 0 403.75 72 0 403.75 73 0
403.75 74 0 403.75 75 0 403.75 76 0 403.75
77 0 403.75 78 0 403.75 79 0 403.75 80
0 403.75 81 0 403.75 82 0 403.75 83 0
403.75 84 0 403.75 85 0 403.75 86 0 403.75
87 0 403.75 88 0 403.75 89 0 403.75 90
0 403.75 91 0 403.75 92 0 403.75 93 0
403.75 94 0 403.75 95 0 403.75 96 0 403.75
97 0 403.75 98 0 403.75 99 0 403.75 100
1 403.75 100 2 403.75 100 3 403.75 100 4
403.75 100 5 403.75 100 6 403.75 100 7 403.75
100 8 403.75 100 9 403.75 100 10 403.75 100
11 403.75 100 12 403.75 100 13 403.75 100 14
403.75 100 15 403.75 100 16 403.75 100 17 403.75
100 18 403.75 100 19 403.75 100 20 403.75 100
21 403.75 100 22 403.75 100 23 403.75 100 24
403.75 99 25 403.75 98 25 403.75 97 25 403.75
96 25 403.75 95 25 403.75 94 25 403.75 93
25 403.75 92 25 403.75 91 25 403.75 90 25
403.75 89 25 403.75 88 25 403.75 87 25 403.75
86 25 403.75 85 25 403.75 84 25 403.75 83
25 403.75 82 25 403.75 81 25 403.75 80 25
403.75 79 25 403.75 78 25 403.75 77 25 403.75
76 25 403.75 75 25 403.75 74 25 403.75 73
25 403.75 72 25 403.75 71 25 403.75 70 25
403.75 69 25 403.75 68 25 403.75 67 25 403.75
66 25 403.75 65 25 403.75 64 25 403.75 63
25 403.75 62 25 403.75 61 25 403.75 60 25
403.75 59 25 403.75 58 25 403.75 57 25 403.75
56 25 403.75 55 25 403.75 54 25 403.75 53
25 403.75 52 25 403.75 51 25 403.75 50 25
403.75 49 25 403.75 48 25 403.75 47 25 403.75
46 25 403.75 45 25 403.75 44 25 403.75 43
25 403.75 42 25 403.75 41 25 403.75 40 25
403.75 39 25 403.75 38 25 403.75 37 25 403.75
36 25 403.75 35 25 403.75 34 25 403.75 33
25 403.75 32 25 403.75 31 25 403.75 30 25
403.75 29 25 403.75 28 25 403.75 27 25 403.75
26 25 403.75 25 25 403.75 24 25 403.75 23
25 403.75 22 25 403.75 21 25 403.75 20 25
403.75 19 25 403.75 18 25 403.75 17 25 403.75
16 25 403.75 15 25 403.75 14 25 403.75 13
25 403.75 12 25 403.75 11 25 403.75 10 25
403.75 9 25 403.75 8 25 403.75 7 25 403.75
6 25 403.75 5 25 403.75 4 25 403.75 3
25 403.75 2 25 403.75 1 25 403.75 0 24
403.75 0 23 403.75 0 22 403.75 0 21 403.75
0 20 403.75 0 19 403.75 0 18 403.75 0
17 403.75 0 16 403.75 0 15 403.75 0 14
403.75 0 13 403.75 0 12 403.75 0 11 403.75
0 10 403.75 0 9 403.75 0 8 403.75 0
7 403.75 0 6 403.75 0 5 403.75 0 4
403.75 0 3 403.75 0 2 403.75 0 1 403.75
0 0 400.75 0 0 401.5 0 0 402.25 0
0 403 100 0 400.75 100 0 401.5 100 0
402.25 100 0 403 100 25 400.75 100 25 401.5
100 25 402.25 100 25 403 0 25 400.75 0
25 401.5 0 25 402.25 0 25 403 1 1
400 1 2 400 1 3 400 1 4 400
1 5 400 1 6 400 1 7 400 1
8 400 1 9 400 1 10 400 1 11
400 1 12 400 1 13 400 1 14 400
1 15 400 1 16 400 1 17 400 1
18 400 1 19 400 1 20 400 1 21
400 1 22 400 1 23 400 1 24 400
2 1 400 2 2 400 2 3 400 2
4 400 2 5 400 2 6 400 2 7
400 2 8 400 2 9 400 2 10 400
2 11 400 2 12 400 2 13 400 2
14 400 2 15 400 2 16 400 2 17
400 2 18 400 2 19 400 2 20 400
2 21 400 2 22 400 2 23 400 2
24 400 3 1 400 3 2 400 3 3
400 3 4 400 3 5 400 3 6 400
3 7 400 3 8 400 3 9 400 3
10 400 3 11 400 3 12 400 3 13
400 3 14 400 3 15 400 3 16 400
3 17 400 3 18 400 3 19 400 3
20 400 3 21 400 3 22 400 3 23
400 3 24 400 4 1 400 4 2 400
4 3 400 4 4 400 4 5 400 4
6 400 4 7 400 4 8 400 4 9
400 4 10 400 4 11 400 4 12 400
4 13 400 4 14 400 4 15 400 4
16 400 4 17 400 4 18 400 4 19
400 4 20 400 4 21 400 4 22 400
4 23 400 4 24 400 5 1 400 5
2 400 5 3 400 5 4 400 5 5
400 5 6 400 5 7 400 5 8 400
5 9 400 5 10 400 5 11 400 5
12 400 5 13 400 5 14 400 5 15
400 5 16 400 5 17 400 5 18 400
5 19 400 5 20 400 5 21 400 5
22 400 5 23 400 5 24 400 6 1
400 6 2 400 6 3 400 6 4 400
6 5 400 6 6 400 6 7 400 6
8 400 6 9 400 6 10 400 6 11
400 6 12 400 6 13 400 6 14 400
6 15 400 6 16 400 6 17 400 6
18 400 6 19 400 6 20 400 6 21
400 6 22 400 6 23 400 6 24 400
7 1 400 7 2 400 7 3 400 7
4 400 7 5 400 7 6 400 7 7
400 7 8 400 7 9 400 7 10 400
7 11 400 7 12 400 7 13 400 7
14 400 7 15 400 7 16 400 7 17
400 7 18 400 7 19 400 7 20 400
7 21 400 7 22 400 7 23 400 7
24 400 8 1 400 8 2 400 8 3
400 8 4 400 8 5 400 8 6 400
8 7 400 8 8 400 8 9 400 8
10 400 8 11 400 8 12 400 8 13
400 8 14 400 8 15 400 8 16 400
8 17 400 8 18 400 8 19 400 8
20 400 8 21 400 8 22 400 8 23
400 8 24 400 9 1 400 9 2 400
9 3 400 9 4 400 9 5 400 9
6 400 9 7 400 9 8 400 9 9
400 9 10 400 9 11 400 9 12 400
9 13 400 9 14 400 9 15 400 9
16 400 9 17 400 9 18 400 9 19
400 9 20 400 9 21 400 9 22 400
9 23 400 9 24 400 10 1 400 10
2 400 10 3 400 10 4 400 10 5
400 10 6 400 10 7 400 10 8 400
10 9 400 10 10 400 10 11 400 10
12 400 10 13 400 10 14 400 10 15
400 10 16 400 10 17 400 10 18 400
10 19 400 10 20 400 10 21 400 10
22 400 10 23 400 10 24 400 11 1
400 11 2 400 11 3 400 11 4 400
11 5 400 11 6 400 11 7 400 11
8 400 11 9 400 11 10 400 11 11
400 11 12 400 11 13 400 11 14 400
11 15 400 11 16 400 11 17 400 11
18 400 11 19 400 11 20 400 11 21
400 11 22 400 11 23 400 11 24 400
12 1 400 12 2 400 12 3 400 12
4 400 12 5 400 12 6 400 12 7
400 12 8 400 12 9 400 12 10 400
12 11 400 12 12 400 12 13 400 12
14 400 12 15 400 12 16 400 12 17
400 12 18 400 12 19 400 12 20 400
12 21 400 12 22 400 12 23 400 12
24 400 13 1 400 13 2 400 13 3
400 13 4 400 13 5 400 13 6 400
13 7 400 13 8 400 13 9 400 13
10 400 13 11 400 13 12 400 13 13
400 13 14 400 13 15 400 13 16 400
13 17 400 13 18 400 13 19 400 13
20 400 13 21 400 13 22 400 13 23
400 13 24 400 14 1 400 14 2 400
14 3 400 14 4 400 14 5 400 14
6 400 14 7 400 14 8 400 14 9
400 14 10 400 14 11 400 14 12 400
14 13 400 14 14 400 14 15 400 14
16 400 14 17 400 14 18 400 14 19
400 14 20 400 14 21 400 14 22 400
14 23 400 14 24 400 15 1 400 15
2 400 15 3 400 15 4 400 15 5
400 15 6 400 15 7 400 15 8 400
15 9 400 15 10 400 15 11 400 15
12 400 15 13 400 15 14 400 15 15
400 15 16 400 15 17 400 15 18 400
15 19 400 15 20 400 15 21 400 15
22 400 15 23 400 15 24 400 16 1
400 16 2 400 16 3 400 16 4 400
16 5 400 16 6 400 16 7 400 16
8 400 16 9 400 16 10 400 16 11
400 16 12 400 16 13 400 16 14 400
16 15 400 16 16 400 16 17 400 16
18 400 16 19 400 16 20 400 16 21
400 16 22 400 16 23 400 16 24 400
17 1 400 17 2 400 17 3 400 17
4 400 17 5 400 17 6 400 17 7
400 17 8 400 17 9 400 17 10 400
17 11 400 17 12 400 17 13 400 17
14 400 17 15 400 17 16 400 17 17
400 17 18 400 17 19 400 17 20 400
17 21 400 17 22 400 17 23 400 17
24 400 18 1 400 18 2 400 18 3
400 18 4 400 18 5 400 18 6 400
18 7 400 18 8 400 18 9 400 18
10 400 18 11 400 18 12 400 18 13
400 18 14 400 18 15 400 18 16 400
18 17 400 18 18 400 18 19 400 18
20 400 18 21 400 18 22 400 18 23
400 18 24 400 19 1 400 19 2 400
19 3 400 19 4 400 19 5 400 19
[...]
<PointData>
<DataArray type="Float64" Name="press" NumberOfComponents="1" format="ascii">
850 892.175 800 907.113 850 892.175 800 907.113 876.303 883.166
887.765 891.039 893.596 895.691 897.465 899.001 900.355 901.564 902.655 903.647
904.555 905.391 906.163 906.88 907.546 908.166 908.745 909.285 909.789 910.26
910.7 911.11 911.491 911.845 912.173 912.475 912.753 913.007 913.237 913.445
913.63 913.793 913.935 914.054 914.153 914.23 914.286 914.322 914.337 914.331
914.305 914.258 914.192 914.105 913.998 913.871 913.724 913.557 913.37 913.163
912.937 912.691 912.426 912.141 911.837 911.514 911.173 910.812 910.433 910.035
909.62 909.187 908.737 908.269 907.786 907.286 906.772 906.242 905.699 905.143
904.574 903.995 903.406 902.809 902.204 901.595 900.981 900.367 899.752 899.141
898.535 897.938 897.352 896.78 896.225 895.692 895.183 894.703 894.254 893.841
893.466 893.134 892.847 892.608 892.42 892.284 892.202 892.137 892.025 891.836
891.57 891.224 890.796 890.281 889.676 888.973 888.167 887.247 886.202 885.018
883.677 882.154 880.418 878.425 876.116 873.401 870.145 866.118 860.912 853.54
842.487 842.502 853.6 861.047 866.359 870.52 873.942 876.852 879.387 881.635
883.657 885.496 887.184 888.744 890.197 891.555 892.831 894.035 895.174 896.255
897.282 898.261 899.196 900.089 900.943 901.76 902.544 903.294 904.014 904.704
905.365 905.998 906.605 907.186 907.742 908.272 908.779 909.262 909.722 910.159
910.573 910.965 911.335 911.683 912.01 912.316 912.6 912.863 913.106 913.328
913.53 913.712 913.873 914.014 914.136 914.238 914.32 914.384 914.428 914.453
914.459 914.447 914.417 914.369 914.303 914.219 914.119 914.001 913.868 913.718
913.553 913.373 913.179 912.972 912.751 912.519 912.275 912.021 911.758 911.488
911.21 910.928 910.641 910.353 910.065 909.778 909.494 909.217 908.947 908.688
908.441 908.208 907.993 907.797 907.622 907.47 907.344 907.244 907.171 907.127
907.089 907.019 906.902 906.736 906.52 906.253 905.933 905.556 905.118 904.616
904.043 903.393 902.657 901.823 900.877 899.798 898.561 897.128 895.444 893.424
890.929 887.703 883.138 876.296 876.303 883.166 887.765 891.039 893.596 895.691
897.465 899.001 900.355 901.564 902.655 903.647 904.555 905.391 906.163 906.88
907.546 908.166 908.744 909.285 909.789 910.26 910.7 911.11 911.491 911.845
912.173 912.475 912.753 913.007 913.237 913.445 913.63 913.793 913.935 914.054
914.153 914.23 914.286 914.322 914.337 914.331 914.305 914.258 914.192 914.105
913.998 913.871 913.724 913.557 913.37 913.163 912.937 912.691 912.426 912.141
911.837 911.514 911.172 910.812 910.433 910.035 909.62 909.187 908.737 908.269
907.786 907.286 906.771 906.242 905.699 905.143 904.574 903.995 903.406 902.809
902.204 901.595 900.981 900.367 899.752 899.141 898.535 897.938 897.352 896.78
896.225 895.692 895.183 894.703 894.254 893.841 893.466 893.134 892.847 892.608
892.42 892.284 892.202 892.137 892.025 891.836 891.57 891.224 890.796 890.281
889.676 888.973 888.167 887.247 886.202 885.018 883.677 882.154 880.418 878.425
876.116 873.401 870.145 866.118 860.912 853.54 842.487 842.502 853.6 861.047
866.359 870.52 873.942 876.852 879.387 881.635 883.657 885.496 887.184 888.744
890.197 891.555 892.831 894.035 895.174 896.255 897.282 898.261 899.196 900.089
900.943 901.76 902.544 903.294 904.014 904.704 905.365 905.998 906.605 907.186
907.742 908.272 908.779 909.262 909.722 910.159 910.573 910.965 911.335 911.683
912.01 912.316 912.6 912.863 913.106 913.328 913.53 913.712 913.873 914.014
914.136 914.238 914.32 914.384 914.428 914.453 914.459 914.447 914.417 914.369
914.303 914.219 914.119 914.001 913.868 913.718 913.553 913.373 913.179 912.972
912.751 912.519 912.275 912.021 911.758 911.488 911.21 910.928 910.641 910.353
910.065 909.778 909.494 909.217 908.947 908.688 908.441 908.208 907.993 907.797
907.622 907.47 907.344 907.244 907.171 907.127 907.089 907.019 906.902 906.736
906.52 906.253 905.933 905.556 905.118 904.616 904.043 903.393 902.657 901.823
900.877 899.798 898.561 897.128 895.444 893.424 890.929 887.703 883.138 876.296
850 850 850 850 892.175 892.175 892.175 892.175 800 800
800 800 907.113 907.113 907.113 907.113 878.031 884.269 888.238 891.255
893.64 895.596 897.242 898.649 899.868 900.934 901.871 902.697 903.428 904.074
904.643 905.142 905.577 905.952 906.272 906.537 906.752 906.917 907.034 907.104
884.29 886.758 889.67 892.148 894.248 896.034 897.571 898.906 900.074 901.102
902.011 902.817 903.531 904.163 904.722 905.213 905.641 906.011 906.326 906.588
906.8 906.963 907.079 907.148 888.293 889.704 891.534 893.415 895.149 896.703
898.085 899.311 900.402 901.373 902.239 903.011 903.698 904.31 904.852 905.329
905.747 906.108 906.416 906.672 906.88 907.04 907.153 907.221 891.358 892.231
893.463 894.843 896.225 897.532 898.738 899.837 900.833 901.733 902.543 903.272
903.925 904.51 905.029 905.489 905.892 906.241 906.539 906.788 906.99 907.145
907.256 907.322 893.805 894.392 895.259 896.287 897.375 898.454 899.486 900.452
901.345 902.165 902.913 903.592 904.205 904.757 905.25 905.688 906.073 906.408
906.695 906.934 907.129 907.279 907.385 907.449 895.837 896.254 896.889 897.67
898.529 899.414 900.287 901.126 901.917 902.654 903.336 903.961 904.53 905.046
905.51 905.923 906.288 906.607 906.88 907.109 907.295 907.438 907.54 907.601
897.572 897.881 898.36 898.965 899.651 900.377 901.112 901.834 902.527 903.184
903.799 904.369 904.893 905.37 905.803 906.19 906.533 906.833 907.092 907.309
907.485 907.622 907.719 907.777 899.082 899.318 899.689 900.167 900.72 901.318
901.936 902.555 903.16 903.741 904.292 904.807 905.285 905.724 906.123 906.483
906.804 907.085 907.327 907.532 907.698 907.827 907.919 907.974 900.418 900.603
900.896 901.279 901.729 902.225 902.746 903.276 903.802 904.313 904.803 905.266
905.699 906.1 906.467 906.799 907.096 907.358 907.584 907.775 907.931 908.053
908.139 908.191 901.614 901.762 901.998 902.309 902.679 903.092 903.533 903.987
904.443 904.891 905.325 905.74 906.13 906.494 906.828 907.133 907.407 907.649
907.859 908.036 908.182 908.295 908.376 908.424 902.695 902.815 903.007 903.263
903.57 903.917 904.29 904.68 905.075 905.468 905.851 906.22 906.57 906.899
907.203 907.481 907.732 907.954 908.148 908.313 908.447 908.552 908.627 908.673
903.68 903.778 903.937 904.149 904.406 904.698 905.016 905.351 905.694 906.037
906.375 906.703 907.016 907.311 907.586 907.839 908.068 908.272 908.449 908.601
908.725 908.822 908.892 908.933 904.582 904.664 904.796 904.974 905.19 905.438
905.71 905.998 906.295 906.595 906.893 907.183 907.463 907.727 907.975 908.204
908.412 908.597 908.76 908.898 909.013 909.102 909.166 909.204 905.414 905.482
905.593 905.743 905.926 906.137 906.37 906.619 906.877 907.139 907.401 907.658
907.906 908.143 908.366 908.572 908.76 908.929 909.076 909.203 909.307 909.389
909.447 909.483 906.183 906.24 906.334 906.461 906.617 906.798 906.998 907.213
907.437 907.667 907.897 908.124 908.345 908.556 908.755 908.941 909.11 909.263
909.397 909.512 909.607 909.681 909.735 909.767 906.896 906.945 907.025 907.133
907.266 907.421 907.594 907.78 907.976 908.176 908.379 908.579 908.775 908.963
909.141 909.307 909.46 909.598 909.719 909.823 909.909 909.977 910.026 910.055
907.56 907.601 907.669 907.762 907.877 908.01 908.16 908.321 908.492 908.667
908.845 909.022 909.195 909.363 909.522 909.67 909.807 909.931 910.04 910.134
910.212 910.274 910.318 910.344 908.178 908.214 908.272 908.352 908.45 908.566
908.695 908.836 908.984 909.138 909.295 909.451 909.604 909.753 909.894 910.027
910.15 910.261 910.359 910.444 910.514 910.57 910.609 910.633 908.755 908.786
908.836 908.904 908.99 909.09 909.202 909.325 909.455 909.589 909.727 909.865
910 910.132 910.258 910.376 910.486 910.585 910.674 910.75 910.813 910.863
910.899 910.92 909.294 909.32 909.364 909.423 909.497 909.584 909.681 909.788
909.902 910.02 910.141 910.262 910.382 910.499 910.611 910.716 910.814 910.903
910.982 911.05 911.107 911.152 911.184 911.204 909.797 909.82 909.857 909.909
909.973 910.049 910.134 910.227 910.327 910.43 910.537 910.644 910.75 910.853
910.952 911.046 911.133 911.213 911.283 911.344 911.395 911.435 911.464 911.482
910.267 910.287 910.32 910.364 910.42 910.486 910.56 910.642 910.729 910.82
910.913 911.008 911.101 911.193 911.281 911.364 911.442 911.513 911.576 911.63
911.676 911.712 911.738 911.753 910.706 910.723 910.751 910.79 910.839 910.896
910.961 911.033 911.109 911.189 911.271 911.354 911.437 911.518 911.596 911.67
911.739 911.802 911.858 911.907 911.947 911.979 912.003 912.017 911.115 911.13
911.154 911.188 911.231 911.281 911.338 911.4 911.467 911.538 911.61 911.683
911.756 911.828 911.897 911.962 912.024 912.08 912.129 912.173 912.209 912.238
912.258 912.271 911.495 911.508 911.53 911.56 911.597 911.641 911.69 911.745
911.804 911.866 911.929 911.994 912.058 912.121 912.183 912.241 912.295 912.345
912.389 912.428 912.46 912.485 912.504 912.515 911.849 911.86 911.879 911.905
911.937 911.976 912.019 912.067 912.119 912.173 912.229 912.286 912.343 912.399
912.453 912.504 912.552 912.597 912.636 912.67 912.699 912.722 912.738 912.748
912.176 912.186 912.203 912.225 912.254 912.287 912.325 912.368 912.413 912.461
912.51 912.56 912.61 912.659 912.707 912.753 912.795 912.834 912.869 912.9
912.925 912.945 912.96 912.969 912.478 912.487 912.501 912.521 912.546 912.575
912.609 912.646 912.686 912.728 912.771 912.815 912.859 912.903 912.945 912.985
913.023 913.058 913.088 913.115 913.138 913.156 913.169 913.177 912.756 912.763
912.776 912.793 912.815 912.841 912.87 912.903 912.938 912.974 913.013 913.051
913.09 913.129 913.166 913.202 913.235 913.265 913.293 913.317 913.337 913.353
913.364 913.371 913.009 913.016 913.027 913.042 913.061 913.084 913.11 913.138
913.169 913.201 913.235 913.269 913.303 913.337 913.37 913.401 913.431 913.458
913.482 913.503 913.521 913.535 913.545 913.551 913.239 913.245 913.255 913.268
913.285 913.305 913.327 913.352 913.379 913.408 913.437 913.467 913.498 913.527
913.556 913.584 913.61 913.634 913.655 913.674 913.689 913.702 913.711 913.716
913.447 913.452 913.46 913.472 913.487 913.504 913.524 913.546 913.569 913.594
913.62 913.647 913.673 913.699 913.725 913.749 913.772 913.793 913.812 913.829
913.842 913.853 913.861 913.866 913.632 913.636 913.644 913.654 913.667 913.682
913.699 913.718 913.739 913.761 913.784 913.807 913.83 913.853 913.876 913.897
913.917 913.936 913.952 913.967 913.979 913.989 913.996 914 913.795 913.799
913.805 913.814 913.825 913.838 913.854 913.87 913.889 913.908 913.928 913.948
913.968 913.989 914.008 914.027 914.045 914.061 914.076 914.088 914.099 914.108
914.114 914.117 913.936 913.939 913.945 913.953 913.962 913.974 913.987 914.002
914.018 914.034 914.052 914.07 914.088 914.105 914.122 914.139 914.154 914.169
914.181 914.193 914.202 914.209 914.215 914.218 914.055 914.058 914.063 914.07
914.078 914.089 914.1 914.113 914.127 914.141 914.157 914.172 914.188 914.203
914.218 914.232 914.246 914.258 914.27 914.279 914.288 914.294 914.299 914.302
914.153 914.156 914.16 914.166 914.174 914.182 914.192 914.204 914.216 914.228
914.241 914.255 914.269 914.282 914.295 914.308 914.319 914.33 914.34 914.349
914.356 914.361 914.365 914.368 914.231 914.233 914.237 914.242 914.248 914.256
914.264 914.274 914.284 914.295 914.307 914.318 914.33 914.342 914.353 914.364
914.374 914.384 914.392 914.4 914.406 914.411 914.414 914.416 914.287 914.289
914.292 914.296 914.302 914.308 914.316 914.324 914.333 914.342 914.352 914.362
914.373 914.383 914.392 914.402 914.41 914.419 914.426 914.432 914.438 914.442
914.445 914.447 914.322 914.324 914.327 914.33 914.335 914.341 914.347 914.354
914.362 914.37 914.378 914.387 914.395 914.404 914.412 914.42 914.428 914.435
914.441 914.446 914.451 914.455 914.457 914.459 914.337 914.338 914.341 914.344
914.348 914.353 914.358 914.364 914.37 914.377 914.384 914.392 914.399 914.406
914.413 914.42 914.426 914.432 914.437 914.442 914.446 914.449 914.451 914.453
914.331 914.332 914.334 914.337 914.34 914.344 914.349 914.354 914.359 914.365
914.371 914.377 914.383 914.389 914.395 914.4 914.406 914.41 914.415 914.419
914.422 914.424 914.426 914.427 914.305 914.306 914.308 914.31 914.312 914.316
914.319 914.323 914.328 914.332 914.337 914.342 914.347 914.352 914.357 914.361
914.366 914.37 914.373 914.376 914.379 914.381 914.382 914.383 914.259 914.259
914.261 914.262 914.264 914.267 914.27 914.273 914.276 914.28 914.284 914.288
914.292 914.295 914.299 914.303 914.306 914.309 914.312 914.315 914.317 914.318
914.32 914.32 914.192 914.192 914.193 914.195 914.196 914.198 914.2 914.203
914.205 914.208 914.211 914.214 914.216 914.219 914.222 914.225 914.227 914.23
914.232 914.234 914.235 914.236 914.237 914.238 914.105 914.105 914.106 914.107
914.108 914.109 914.11 914.112 914.114 914.116 914.118 914.12 914.121 914.123
914.125 914.127 914.129 914.13 914.132 914.133 914.134 914.135 914.135 914.136
913.998 913.998 913.998 913.999 913.999 914 914.001 914.002 914.003 914.004
914.005 914.006 914.007 914.008 914.009 914.01 914.011 914.011 914.012 914.013
914.013 914.014 914.014 914.014 913.871 913.871 913.871 913.871 913.871 913.871
913.871 913.871 913.871 913.872 913.872 913.872 913.872 913.872 913.872 913.872
913.872 913.873 913.873 913.873 913.873 913.873 913.873 913.873 913.724 913.723
913.723 913.723 913.722 913.722 913.721 913.721 913.72 913.72 913.719 913.718
913.717 913.717 913.716 913.715 913.714 913.714 913.713 913.713 913.712 913.712
913.712 913.712 913.557 913.556 913.556 913.555 913.554 913.553 913.552 913.551
913.549 913.548 913.546 913.544 913.543 913.541 913.539 913.538 913.536 913.535
913.534 913.533 913.532 913.531 913.53 913.53 913.37 913.369 913.368 913.367
913.366 913.364 913.362 913.36 913.358 913.356 913.353 913.351 913.348 913.345
913.343 913.34 913.338 913.336 913.334 913.332 913.331 913.33 913.329 913.328
913.163 913.162 913.161 913.16 913.158 913.156 913.153 913.15 913.147 913.144
913.14 913.137 913.133 913.13 913.126 913.123 913.12 913.117 913.114 913.112
913.11 913.108 913.107 913.106 912.937 912.936 912.935 912.933 912.93 912.927
912.924 912.92 912.916 912.912 912.907 912.903 912.898 912.893 912.889 912.885
912.881 912.877 912.873 912.871 912.868 912.866 912.865 912.864 912.691 912.69
912.688 912.686 912.683 912.679 912.675 912.67 912.665 912.66 912.654 912.649
912.643 912.637 912.632 912.626 912.621 912.617 912.612 912.609 912.606 912.603
912.601 912.6 912.426 912.424 912.422 912.419 912.416 912.411 912.406 912.401
912.394 912.388 912.381 912.374 912.368 912.361 912.354 912.347 912.341 912.336
912.331 912.326 912.322 912.319 912.317 912.316 912.141 912.139 912.137 912.133
912.129 912.124 912.118 912.111 912.104 912.096 912.088 912.08 912.072 912.064
912.056 912.048 912.041 912.034 912.028 912.023 912.018 912.015 912.012 912.011
911.837 911.835 911.832 911.828 911.823 911.817 911.81 911.802 911.793 911.784
911.775 911.766 911.756 911.746 911.737 911.728 911.719 911.711 911.704 911.698
911.693 911.689 911.686 911.684 911.514 911.512 911.508 911.503 911.497 911.49
911.482 911.473 911.463 911.453 911.442 911.431 911.42 911.408 911.397 911.387
911.377 911.368 911.36 911.352 911.346 911.341 911.338 911.336 911.172 911.169
911.165 911.16 911.153 911.145 911.135 911.125 911.113 911.101 911.089 911.076
911.063 911.05 911.037 911.025 911.014 911.003 910.993 910.985 910.978 910.972
910.968 910.966 910.811 910.808 910.804 910.797 910.789 910.78 910.769 910.757
910.744 910.73 910.716 910.701 910.686 910.671 910.656 910.642 910.629 910.617
910.606 910.596 910.588 910.581 910.577 910.574 910.432 910.428 910.423 910.416
910.407 910.396 910.384 910.37 910.355 910.339 910.322 910.305 910.288 910.271
910.254 910.238 910.223 910.209 910.196 910.185 910.176 910.168 910.163 910.16
910.034 910.03 910.024 910.016 910.006 909.993 909.979 909.963 909.946 909.928
909.909 909.89 909.87 909.85 909.831 909.813 909.796 909.779 909.765 909.752
909.742 909.733 909.727 909.723 909.619 909.614 909.608 909.598 909.586 909.572
909.556 909.538 909.519 909.498 909.476 909.454 909.431 909.409 909.387 909.366
909.346 909.328 909.311 909.297 909.285 909.275 909.268 909.264 909.185 909.181
909.173 909.162 909.149 909.133 909.114 909.094 909.072 909.048 909.023 908.998
908.972 908.947 908.922 908.898 908.875 908.854 908.835 908.819 908.805 908.794
908.786 908.781 908.735 908.729 908.721 908.708 908.693 908.675 908.654 908.631
908.606 908.579 908.551 908.522 908.493 908.464 908.435 908.408 908.382 908.358
908.337 908.318 908.302 908.289 908.28 908.274 908.267 908.261 908.251 908.238
908.22 908.199 908.176 908.149 908.121 908.09 908.058 908.026 907.992 907.959
907.927 907.896 907.867 907.839 907.815 907.793 907.775 907.761 907.75 907.744
907.783 907.777 907.765 907.75 907.73 907.707 907.68 907.65 907.617 907.583
907.546 907.509 907.472 907.434 907.397 907.362 907.328 907.297 907.269 907.245
907.224 907.208 907.196 907.188 907.284 907.276 907.263 907.245 907.223 907.197
907.166 907.132 907.095 907.056 907.015 906.973 906.93 906.888 906.846 906.806
906.767 906.732 906.7 906.672 906.649 906.63 906.616 906.608 906.769 906.76
906.745 906.725 906.7 906.67 906.636 906.597 906.556 906.511 906.465 906.417
906.368 906.32 906.272 906.227 906.183 906.143 906.107 906.075 906.048 906.027
906.011 906.001 906.239 906.229 906.213 906.19 906.162 906.128 906.089 906.045
905.998 905.948 905.895 905.841 905.786 905.731 905.677 905.625 905.575 905.53
905.488 905.452 905.421 905.397 905.379 905.368 905.695 905.684 905.666 905.64
905.608 905.57 905.526 905.477 905.423 905.366 905.306 905.245 905.182 905.12
905.059 905 904.944 904.892 904.844 904.803 904.768 904.74 904.72 904.708
905.139 905.126 905.105 905.077 905.04 904.997 904.947 904.892 904.832 904.767
904.699 904.63 904.559 904.488 904.419 904.351 904.287 904.228 904.174 904.127
904.087 904.056 904.033 904.018 904.57 904.556 904.532 904.5 904.459 904.41
904.354 904.292 904.224 904.151 904.074 903.995 903.915 903.834 903.755 903.679
903.606 903.539 903.478 903.424 903.378 903.342 903.316 903.3 903.99 903.974
903.948 903.911 903.865 903.811 903.747 903.677 903.6 903.517 903.431 903.341
903.25 903.159 903.07 902.983 902.9 902.823 902.753 902.692 902.64 902.598
902.568 902.55 903.4 903.382 903.353 903.312 903.26 903.199 903.128 903.048
902.961 902.868 902.77 902.669 902.566 902.462 902.36 902.262 902.167 902.08
902 901.93 901.87 901.823 901.788 901.767 902.802 902.782 902.749 902.703
902.645 902.576 902.496 902.406 902.308 902.203 902.093 901.978 901.861 901.744
901.628 901.515 901.408 901.308 901.217 901.137 901.069 901.014 900.975 900.951
902.197 902.175 902.137 902.086 902.021 901.943 901.853 901.752 901.642 901.524
901.399 901.269 901.137 901.004 900.872 900.744 900.622 900.507 900.403 900.311
900.233 900.171 900.126 900.098 901.586 901.561 901.52 901.462 901.389 901.302
901.201 901.088 900.964 900.83 900.689 900.543 900.393 900.242 900.092 899.946
899.807 899.676 899.557 899.452 899.362 899.291 899.238 899.206 900.972 900.944
900.898 900.833 900.752 900.654 900.541 900.414 900.275 900.124 899.965 899.8
899.63 899.459 899.289 899.122 898.963 898.814 898.677 898.556 898.453 898.371
898.311 898.274 900.356 900.325 900.273 900.202 900.111 900.001 899.875 899.733
899.576 899.407 899.228 899.041 898.849 898.654 898.461 898.271 898.089 897.918
897.762 897.622 897.504 897.409 897.339 897.297 899.741 899.706 899.649 899.569
899.468 899.346 899.204 899.045 898.87 898.68 898.478 898.267 898.05 897.829
897.609 897.393 897.185 896.989 896.808 896.648 896.511 896.401 896.321 896.271
899.128 899.09 899.026 898.938 898.825 898.689 898.532 898.354 898.157 897.945
897.718 897.48 897.234 896.984 896.733 896.487 896.248 896.023 895.816 895.63
895.472 895.344 895.251 895.193 898.521 898.479 898.408 898.31 898.185 898.035
897.859 897.661 897.442 897.203 896.949 896.681 896.403 896.119 895.834 895.553
895.279 895.02 894.781 894.566 894.382 894.234 894.125 894.058 897.922 897.875
897.797 897.689 897.551 897.384 897.19 896.97 896.725 896.459 896.173 895.872
895.558 895.237 894.912 894.59 894.277 893.978 893.701 893.452 893.238 893.064