<VTKFile type="UnstructuredGrid" version="1.0">
<UnstructuredGrid>
<FieldData>
<DataArray type="Float64" Name="TIME" NumberOfTuples="1" format="ascii" RangeMin="0.5" RangeMax="0.5">
0.5
</DataArray>
</FieldData>
<Piece NumberOfPoints="15756" NumberOfCells="12500">
<Points>
<DataArray type="Float64" NumberOfComponents="3" format="ascii">
0 0 400 100 0 400 100 25 400 0
25 400 0 0 403.75 100 0 403.75 100 25
403.75 0 25 403.75 1 0 400 2 0 400
3 0 400 4 0 400 5 0 400 6
0 400 7 0 400 8 0 400 9 0
400 10 0 400 11 0 400 12 0 400
13 0 400 14 0 400 15 0 400 16
0 400 17 0 400 18 0 400 19 0
400 20 0 400 21 0 400 22 0 400
23 0 400 24 0 400 25 0 400 26
0 400 27 0 400 28 0 400 29 0
400 30 0 400 31 0 400 32 0 400
33 0 400 34 0 400 35 0 400 36
0 400 37 0 400 38 0 400 39 0
400 40 0 400 41 0 400 42 0 400
43 0 400 44 0 400 45 0 400 46
0 400 47 0 400 48 0 400 49 0
400 50 0 400 51 0 400 52 0 400
53 0 400 54 0 400 55 0 400 56
0 400 57 0 400 58 0 400 59 0
400 60 0 400 61 0 400 62 0 400
63 0 400 64 0 400 65 0 400 66
0 400 67 0 400 68 0 400 69 0
400 70 0 400 71 0 400 72 0 400
73 0 400 74 0 400 75 0 400 76
0 400 77 0 400 78 0 400 79 0
400 80 0 400 81 0 400 82 0 400
83 0 400 84 0 400 85 0 400 86
0 400 87 0 400 88 0 400 89 0
400 90 0 400 91 0 400 92 0 400
93 0 400 94 0 400 95 0 400 96
0 400 97 0 400 98 0 400 99 0
400 100 1 400 100 2 400 100 3 400
100 4 400 100 5 400 100 6 400 100
7 400 100 8 400 100 9 400 100 10
400 100 11 400 100 12 400 100 13 400
100 14 400 100 15 400 100 16 400 100
17 400 100 18 400 100 19 400 100 20
400 100 21 400 100 22 400 100 23 400
100 24 400 99 25 400 98 25 400 97
25 400 96 25 400 95 25 400 94 25
400 93 25 400 92 25 400 91 25 400
90 25 400 89 25 400 88 25 400 87
25 400 86 25 400 85 25 400 84 25
400 83 25 400 82 25 400 81 25 400
80 25 400 79 25 400 78 25 400 77
25 400 76 25 400 75 25 400 74 25
400 73 25 400 72 25 400 71 25 400
70 25 400 69 25 400 68 25 400 67
25 400 66 25 400 65 25 400 64 25
400 63 25 400 62 25 400 61 25 400
60 25 400 59 25 400 58 25 400 57
25 400 56 25 400 55 25 400 54 25
400 53 25 400 52 25 400 51 25 400
50 25 400 49 25 400 48 25 400 47
25 400 46 25 400 45 25 400 44 25
400 43 25 400 42 25 400 41 25 400
40 25 400 39 25 400 38 25 400 37
25 400 36 25 400 35 25 400 34 25
400 33 25 400 32 25 400 31 25 400
30 25 400 29 25 400 28 25 400 27
25 400 26 25 400 25 25 400 24 25
400 23 25 400 22 25 400 21 25 400
20 25 400 19 25 400 18 25 400 17
25 400 16 25 400 15 25 400 14 25
400 13 25 400 12 25 400 11 25 400
10 25 400 9 25 400 8 25 400 7
25 400 6 25 400 5 25 400 4 25
400 3 25 400 2 25 400 1 25 400
0 24 400 0 23 400 0 22 400 0
21 400 0 20 400 0 19 400 0 18
400 0 17 400 0 16 400 0 15 400
0 14 400 0 13 400 0 12 400 0
11 400 0 10 400 0 9 400 0 8
400 0 7 400 0 6 400 0 5 400
0 4 400 0 3 400 0 2 400 0
1 400 1 0 403.75 2 0 403.75 3 0
403.75 4 0 403.75 5 0 403.75 6 0 403.75
7 0 403.75 8 0 403.75 9 0 403.75 10
0 403.75 11 0 403.75 12 0 403.75 13 0
403.75 14 0 403.75 15 0 403.75 16 0 403.75
17 0 403.75 18 0 403.75 19 0 403.75 20
0 403.75 21 0 403.75 22 0 403.75 23 0
403.75 24 0 403.75 25 0 403.75 26 0 403.75
27 0 403.75 28 0 403.75 29 0 403.75 30
0 403.75 31 0 403.75 32 0 403.75 33 0
403.75 34 0 403.75 35 0 403.75 36 0 403.75
37 0 403.75 38 0 403.75 39 0 403.75 40
0 403.75 41 0 403.75 42 0 403.75 43 0
403.75 44 0 403.75 45 0 403.75 46 0 403.75
47 0 403.75 48 0 403.75 49 0 403.75 50
0 403.75 51 0 403.75 52 0 403.75 53 0
403.75 54 0 403.75 55 0 403.75 56 0 403.75
57 0 403.75 58 0 403.75 59 0 403.75 60
0 403.75 61 0 403.75 62 0 403.75 63 0
403.75 64 0 403.75 65 0 403.75 66 0 403.75
67 0 403.75 68 0 403.75 69 0 403.75 70
0 403.75 71 0 403.75 72 0 403.75 73 0
403.75 74 0 403.75 75 0 403.75 76 0 403.75
77 0 403.75 78 0 403.75 79 0 403.75 80
0 403.75 81 0 403.75 82 0 403.75 83 0
403.75 84 0 403.75 85 0 403.75 86 0 403.75
87 0 403.75 88 0 403.75 89 0 403.75 90
0 403.75 91 0 403.75 92 0 403.75 93 0
403.75 94 0 403.75 95 0 403.75 96 0 403.75
97 0 403.75 98 0 403.75 99 0 403.75 100
1 403.75 100 2 403.75 100 3 403.75 100 4
403.75 100 5 403.75 100 6 403.75 100 7 403.75
100 8 403.75 100 9 403.75 100 10 403.75 100
11 403.75 100 12 403.75 100 13 403.75 100 14
403.75 100 15 403.75 100 16 403.75 100 17 403.75
100 18 403.75 100 19 403.75 100 20 403.75 100
21 403.75 100 22 403.75 100 23 403.75 100 24
403.75 99 25 403.75 98 25 403.75 97 25 403.75
96 25 403.75 95 25 403.75 94 25 403.75 93
25 403.75 92 25 403.75 91 25 403.75 90 25
403.75 89 25 403.75 88 25 403.75 87 25 403.75
86 25 403.75 85 25 403.75 84 25 403.75 83
25 403.75 82 25 403.75 81 25 403.75 80 25
403.75 79 25 403.75 78 25 403.75 77 25 403.75
76 25 403.75 75 25 403.75 74 25 403.75 73
25 403.75 72 25 403.75 71 25 403.75 70 25
403.75 69 25 403.75 68 25 403.75 67 25 403.75
66 25 403.75 65 25 403.75 64 25 403.75 63
25 403.75 62 25 403.75 61 25 403.75 60 25
403.75 59 25 403.75 58 25 403.75 57 25 403.75
56 25 403.75 55 25 403.75 54 25 403.75 53
25 403.75 52 25 403.75 51 25 403.75 50 25
403.75 49 25 403.75 48 25 403.75 47 25 403.75
46 25 403.75 45 25 403.75 44 25 403.75 43
25 403.75 42 25 403.75 41 25 403.75 40 25
403.75 39 25 403.75 38 25 403.75 37 25 403.75
36 25 403.75 35 25 403.75 34 25 403.75 33
25 403.75 32 25 403.75 31 25 403.75 30 25
403.75 29 25 403.75 28 25 403.75 27 25 403.75
26 25 403.75 25 25 403.75 24 25 403.75 23
25 403.75 22 25 403.75 21 25 403.75 20 25
403.75 19 25 403.75 18 25 403.75 17 25 403.75
16 25 403.75 15 25 403.75 14 25 403.75 13
25 403.75 12 25 403.75 11 25 403.75 10 25
403.75 9 25 403.75 8 25 403.75 7 25 403.75
6 25 403.75 5 25 403.75 4 25 403.75 3
25 403.75 2 25 403.75 1 25 403.75 0 24
403.75 0 23 403.75 0 22 403.75 0 21 403.75
0 20 403.75 0 19 403.75 0 18 403.75 0
17 403.75 0 16 403.75 0 15 403.75 0 14
403.75 0 13 403.75 0 12 403.75 0 11 403.75
0 10 403.75 0 9 403.75 0 8 403.75 0
7 403.75 0 6 403.75 0 5 403.75 0 4
403.75 0 3 403.75 0 2 403.75 0 1 403.75
0 0 400.75 0 0 401.5 0 0 402.25 0
0 403 100 0 400.75 100 0 401.5 100 0
402.25 100 0 403 100 25 400.75 100 25 401.5
100 25 402.25 100 25 403 0 25 400.75 0
25 401.5 0 25 402.25 0 25 403 1 1
400 1 2 400 1 3 400 1 4 400
1 5 400 1 6 400 1 7 400 1
8 400 1 9 400 1 10 400 1 11
400 1 12 400 1 13 400 1 14 400
1 15 400 1 16 400 1 17 400 1
18 400 1 19 400 1 20 400 1 21
400 1 22 400 1 23 400 1 24 400
2 1 400 2 2 400 2 3 400 2
4 400 2 5 400 2 6 400 2 7
400 2 8 400 2 9 400 2 10 400
2 11 400 2 12 400 2 13 400 2
14 400 2 15 400 2 16 400 2 17
400 2 18 400 2 19 400 2 20 400
2 21 400 2 22 400 2 23 400 2
24 400 3 1 400 3 2 400 3 3
400 3 4 400 3 5 400 3 6 400
3 7 400 3 8 400 3 9 400 3
10 400 3 11 400 3 12 400 3 13
400 3 14 400 3 15 400 3 16 400
3 17 400 3 18 400 3 19 400 3
20 400 3 21 400 3 22 400 3 23
400 3 24 400 4 1 400 4 2 400
4 3 400 4 4 400 4 5 400 4
6 400 4 7 400 4 8 400 4 9
400 4 10 400 4 11 400 4 12 400
4 13 400 4 14 400 4 15 400 4
16 400 4 17 400 4 18 400 4 19
400 4 20 400 4 21 400 4 22 400
4 23 400 4 24 400 5 1 400 5
2 400 5 3 400 5 4 400 5 5
400 5 6 400 5 7 400 5 8 400
5 9 400 5 10 400 5 11 400 5
12 400 5 13 400 5 14 400 5 15
400 5 16 400 5 17 400 5 18 400
5 19 400 5 20 400 5 21 400 5
22 400 5 23 400 5 24 400 6 1
400 6 2 400 6 3 400 6 4 400
6 5 400 6 6 400 6 7 400 6
8 400 6 9 400 6 10 400 6 11
400 6 12 400 6 13 400 6 14 400
6 15 400 6 16 400 6 17 400 6
18 400 6 19 400 6 20 400 6 21
400 6 22 400 6 23 400 6 24 400
7 1 400 7 2 400 7 3 400 7
4 400 7 5 400 7 6 400 7 7
400 7 8 400 7 9 400 7 10 400
7 11 400 7 12 400 7 13 400 7
14 400 7 15 400 7 16 400 7 17
400 7 18 400 7 19 400 7 20 400
7 21 400 7 22 400 7 23 400 7
24 400 8 1 400 8 2 400 8 3
400 8 4 400 8 5 400 8 6 400
8 7 400 8 8 400 8 9 400 8
10 400 8 11 400 8 12 400 8 13
400 8 14 400 8 15 400 8 16 400
8 17 400 8 18 400 8 19 400 8
20 400 8 21 400 8 22 400 8 23
400 8 24 400 9 1 400 9 2 400
9 3 400 9 4 400 9 5 400 9
6 400 9 7 400 9 8 400 9 9
400 9 10 400 9 11 400 9 12 400
9 13 400 9 14 400 9 15 400 9
16 400 9 17 400 9 18 400 9 19
400 9 20 400 9 21 400 9 22 400
9 23 400 9 24 400 10 1 400 10
2 400 10 3 400 10 4 400 10 5
400 10 6 400 10 7 400 10 8 400
10 9 400 10 10 400 10 11 400 10
12 400 10 13 400 10 14 400 10 15
400 10 16 400 10 17 400 10 18 400
10 19 400 10 20 400 10 21 400 10
22 400 10 23 400 10 24 400 11 1
400 11 2 400 11 3 400 11 4 400
11 5 400 11 6 400 11 7 400 11
8 400 11 9 400 11 10 400 11 11
400 11 12 400 11 13 400 11 14 400
11 15 400 11 16 400 11 17 400 11
18 400 11 19 400 11 20 400 11 21
400 11 22 400 11 23 400 11 24 400
12 1 400 12 2 400 12 3 400 12
4 400 12 5 400 12 6 400 12 7
400 12 8 400 12 9 400 12 10 400
12 11 400 12 12 400 12 13 400 12
14 400 12 15 400 12 16 400 12 17
400 12 18 400 12 19 400 12 20 400
12 21 400 12 22 400 12 23 400 12
24 400 13 1 400 13 2 400 13 3
400 13 4 400 13 5 400 13 6 400
13 7 400 13 8 400 13 9 400 13
10 400 13 11 400 13 12 400 13 13
400 13 14 400 13 15 400 13 16 400
13 17 400 13 18 400 13 19 400 13
20 400 13 21 400 13 22 400 13 23
400 13 24 400 14 1 400 14 2 400
14 3 400 14 4 400 14 5 400 14
6 400 14 7 400 14 8 400 14 9
400 14 10 400 14 11 400 14 12 400
14 13 400 14 14 400 14 15 400 14
16 400 14 17 400 14 18 400 14 19
400 14 20 400 14 21 400 14 22 400
14 23 400 14 24 400 15 1 400 15
2 400 15 3 400 15 4 400 15 5
400 15 6 400 15 7 400 15 8 400
15 9 400 15 10 400 15 11 400 15
12 400 15 13 400 15 14 400 15 15
400 15 16 400 15 17 400 15 18 400
15 19 400 15 20 400 15 21 400 15
22 400 15 23 400 15 24 400 16 1
400 16 2 400 16 3 400 16 4 400
16 5 400 16 6 400 16 7 400 16
8 400 16 9 400 16 10 400 16 11
400 16 12 400 16 13 400 16 14 400
16 15 400 16 16 400 16 17 400 16
18 400 16 19 400 16 20 400 16 21
400 16 22 400 16 23 400 16 24 400
17 1 400 17 2 400 17 3 400 17
4 400 17 5 400 17 6 400 17 7
400 17 8 400 17 9 400 17 10 400
17 11 400 17 12 400 17 13 400 17
14 400 17 15 400 17 16 400 17 17
400 17 18 400 17 19 400 17 20 400
17 21 400 17 22 400 17 23 400 17
24 400 18 1 400 18 2 400 18 3
400 18 4 400 18 5 400 18 6 400
18 7 400 18 8 400 18 9 400 18
10 400 18 11 400 18 12 400 18 13
400 18 14 400 18 15 400 18 16 400
18 17 400 18 18 400 18 19 400 18
20 400 18 21 400 18 22 400 18 23
400 18 24 400 19 1 400 19 2 400
19 3 400 19 4 400 19 5 400 19
[...]
<PointData>
<DataArray type="Float64" Name="press" NumberOfComponents="1" format="ascii">
100 96.3565 60 99.8968 100 59.569 60 63.1093 107.419 106.241
105.392 104.52 103.785 103.165 102.643 102.198 101.814 101.481 101.188 100.929
100.698 100.491 100.305 100.136 99.9834 99.8439 99.7164 99.5994 99.4919 99.3927
99.301 99.2161 99.1373 99.064 98.9956 98.9317 98.872 98.8159 98.7632 98.7135
98.6667 98.6224 98.5804 98.5405 98.5025 98.4662 98.4315 98.3981 98.3661 98.3351
98.3051 98.276 98.2476 98.2199 98.1927 98.166 98.1395 98.1134 98.0874 98.0614
98.0354 98.0093 97.9831 97.9565 97.9297 97.9024 97.8746 97.8462 97.8172 97.7875
97.757 97.7257 97.6934 97.6602 97.626 97.5907 97.5542 97.5167 97.4779 97.438
97.3968 97.3545 97.3109 97.2662 97.2204 97.1736 97.1258 97.0772 97.028 96.9782
96.9282 96.8781 96.8283 96.779 96.7306 96.6833 96.6377 96.5941 96.553 96.5147
96.4797 96.4483 96.4211 96.3983 96.3802 96.3671 96.3592 96.3509 96.3339 96.3053
96.2649 96.212 96.1461 96.0662 95.9713 95.86 95.7307 95.5813 95.4091 95.2111
94.983 94.7195 94.4136 94.0553 93.6303 93.1161 92.474 91.6263 90.4217 88.2906
84.9508 84.9518 88.2944 90.4303 91.6416 92.4981 93.1508 93.6777 94.1175 94.4927
94.8178 95.1026 95.3545 95.5788 95.7798 95.9607 96.1244 96.2731 96.4087 96.5326
96.6463 96.7509 96.8474 96.9365 97.0191 97.0958 97.1672 97.2338 97.296 97.3543
97.4089 97.4603 97.5088 97.5545 97.5979 97.6389 97.678 97.7152 97.7508 97.7849
97.8177 97.8493 97.8798 97.9094 97.9382 97.9662 97.9937 98.0207 98.0473 98.0737
98.0998 98.1258 98.1518 98.1779 98.2041 98.2305 98.2572 98.2844 98.312 98.3401
98.3689 98.3983 98.4285 98.4595 98.4915 98.5243 98.5582 98.5932 98.6293 98.6665
98.705 98.7446 98.7856 98.8277 98.8712 98.9158 98.9617 99.0087 99.0568 99.1059
99.1558 99.2063 99.2574 99.3089 99.3603 99.4115 99.4622 99.512 99.5606 99.6075
99.6523 99.6947 99.7341 99.7701 99.8023 99.8303 99.8538 99.8724 99.8859 99.894
99.9026 99.9201 99.9495 99.9911 100.046 100.113 100.196 100.293 100.408 100.541
100.695 100.872 101.076 101.311 101.582 101.896 102.262 102.692 103.201 103.809
104.536 105.4 106.245 107.419 74.7913 71.3825 69.2028 67.9611 67.0813 66.41
65.8677 65.415 65.0287 64.694 64.4007 64.1414 63.9105 63.7037 63.5174 63.3489
63.1959 63.0564 62.9289 62.8119 62.7044 62.6052 62.5135 62.4286 62.3498 62.2765
62.2081 62.1442 62.0845 62.0284 61.9757 61.926 61.8792 61.8349 61.7929 61.753
61.715 61.6787 61.644 61.6106 61.5786 61.5476 61.5176 61.4885 61.4601 61.4324
61.4052 61.3785 61.352 61.3259 61.2999 61.2739 61.2479 61.2218 61.1956 61.169
61.1422 61.1149 61.0871 61.0587 61.0297 61 60.9695 60.9382 60.9059 60.8727
60.8385 60.8032 60.7667 60.7292 60.6904 60.6505 60.6093 60.567 60.5234 60.4787
60.4329 60.3861 60.3383 60.2897 60.2405 60.1907 60.1407 60.0906 60.0408 59.9915
59.9431 59.8958 59.8502 59.8066 59.7655 59.7272 59.6922 59.6608 59.6336 59.6108
59.5927 59.5796 59.5717 59.5634 59.5464 59.5178 59.4774 59.4245 59.3586 59.2787
59.1838 59.0725 58.9432 58.7938 58.6217 58.4237 58.1958 57.9328 57.6279 57.2726
56.8552 56.3608 55.7706 55.0675 54.2329 53.4317 52.3236 52.3246 53.4355 54.2415
55.0829 55.7946 56.3955 56.9026 57.3348 57.7071 58.031 58.3154 58.5671 58.7913
58.9923 59.1732 59.3369 59.4856 59.6212 59.7451 59.8588 59.9634 60.0599 60.149
60.2316 60.3083 60.3797 60.4463 60.5085 60.5668 60.6214 60.6728 60.7213 60.767
60.8104 60.8514 60.8905 60.9277 60.9633 60.9974 61.0302 61.0618 61.0923 61.1219
61.1507 61.1787 61.2062 61.2332 61.2598 61.2862 61.3123 61.3383 61.3643 61.3904
61.4166 61.443 61.4697 61.4969 61.5245 61.5526 61.5814 61.6108 61.641 61.672
61.704 61.7368 61.7707 61.8057 61.8418 61.879 61.9175 61.9571 61.9981 62.0402
62.0837 62.1283 62.1742 62.2212 62.2693 62.3184 62.3683 62.4188 62.4699 62.5214
62.5728 62.624 62.6747 62.7245 62.7731 62.82 62.8648 62.9072 62.9466 62.9826
63.0148 63.0428 63.0663 63.0849 63.0984 63.1065 63.1151 63.1326 63.162 63.2036
63.2581 63.326 63.4082 63.5059 63.6205 63.7537 63.9076 64.0848 64.2888 64.5236
64.7949 65.11 65.4789 65.9164 66.4456 67.106 67.9768 69.2117 71.3864 74.7923
100 100 100 100 88.999 81.6415 74.284 66.9265 60 60
60 60 92.5393 85.1818 77.8243 70.4668 106.421 106.13 105.245 104.444
103.745 103.156 102.658 102.237 101.876 101.566 101.298 101.066 100.864 100.688
100.535 100.403 100.289 100.192 100.11 100.042 99.988 99.9465 99.9172 99.8998
106.128 105.538 104.874 104.185 103.565 103.026 102.562 102.164 101.819 101.521
101.262 101.036 100.839 100.667 100.517 100.387 100.275 100.179 100.099 100.032
99.9786 99.9377 99.9088 99.8916 105.237 104.869 104.358 103.817 103.299 102.83
102.414 102.049 101.729 101.449 101.203 100.987 100.798 100.632 100.487 100.361
100.252 100.159 100.08 100.015 99.9631 99.9231 99.8948 99.878 104.429 104.173
103.81 103.397 102.981 102.588 102.227 101.902 101.612 101.354 101.125 100.922
100.743 100.585 100.447 100.326 100.221 100.131 100.055 99.9925 99.9419 99.903
99.8756 99.8592 103.722 103.545 103.283 102.972 102.645 102.321 102.015 101.732
101.474 101.24 101.03 100.843 100.676 100.528 100.397 100.282 100.183 100.097
100.024 99.9637 99.9151 99.8777 99.8513 99.8356 103.121 102.995 102.803 102.568
102.31 102.048 101.791 101.548 101.321 101.113 100.924 100.753 100.599 100.461
100.339 100.231 100.137 100.056 99.987 99.9296 99.8832 99.8476 99.8224 99.8073
102.611 102.518 102.374 102.194 101.991 101.778 101.565 101.358 101.162 100.978
100.809 100.654 100.513 100.387 100.274 100.174 100.086 100.01 99.9448 99.8906
99.8468 99.813 99.7891 99.7748 102.174 102.104 101.994 101.854 101.693 101.52
101.343 101.168 100.999 100.838 100.688 100.55 100.423 100.307 100.204 100.111
100.03 99.9587 99.8981 99.8474 99.8062 99.7745 99.752 99.7385 101.796 101.742
101.657 101.546 101.417 101.276 101.129 100.981 100.836 100.697 100.565 100.442
100.328 100.223 100.129 100.044 99.9693 99.9038 99.8476 99.8004 99.7621 99.7325
99.7115 99.6989 101.466 101.424 101.357 101.269 101.164 101.049 100.926 100.802
100.678 100.557 100.441 100.332 100.231 100.137 100.051 99.9745 99.9059 99.8458
99.794 99.7504 99.715 99.6875 99.6679 99.6562 101.177 101.143 101.089 101.018
100.933 100.837 100.735 100.63 100.524 100.42 100.319 100.223 100.133 100.049
99.9722 99.9025 99.8402 99.7854 99.738 99.6979 99.6653 99.64 99.6219 99.6111
100.92 100.893 100.849 100.791 100.721 100.642 100.556 100.467 100.377 100.287
100.199 100.115 100.035 99.9607 99.892 99.8293 99.773 99.7232 99.68 99.6435
99.6136 99.5904 99.5738 99.5639 100.691 100.669 100.633 100.585 100.527 100.461
100.39 100.314 100.237 100.159 100.083 100.009 99.9391 99.873 99.8117 99.7556
99.705 99.66 99.6209 99.5877 99.5605 99.5393 99.5242 99.5151 100.485 100.467
100.438 100.398 100.35 100.295 100.234 100.17 100.104 100.037 99.971 99.9067
99.8449 99.7866 99.7321 99.682 99.6366 99.5962 99.5609 99.5309 99.5062 99.487
99.4733 99.465 100.3 100.285 100.26 100.228 100.187 100.141 100.09 100.035
99.9784 99.9209 99.8636 99.8074 99.7533 99.7019 99.6536 99.6091 99.5686 99.5324
99.5006 99.4736 99.4514 99.434 99.4215 99.414 100.132 100.12 100.099 100.072
100.038 99.9988 99.9553 99.9088 99.8602 99.8106 99.7609 99.712 99.6646 99.6194
99.5768 99.5372 99.5012 99.4688 99.4405 99.4162 99.3962 99.3805 99.3693 99.3626
99.9799 99.9694 99.9523 99.9292 99.9006 99.8674 99.8304 99.7906 99.7489 99.7061
99.6631 99.6205 99.5791 99.5393 99.5018 99.4668 99.4348 99.406 99.3807 99.359
99.3411 99.327 99.3169 99.3109 99.841 99.8321 99.8177 99.7982 99.774 99.7457
99.7142 99.6802 99.6443 99.6074 99.5701 99.533 99.4968 99.462 99.4289 99.3981
99.3697 99.3442 99.3216 99.3023 99.2863 99.2737 99.2647 99.2593 99.7139 99.7064
99.6942 99.6776 99.6571 99.633 99.6061 99.5769 99.546 99.5141 99.4818 99.4496
99.418 99.3875 99.3584 99.3312 99.3062 99.2836 99.2635 99.2463 99.2321 99.2209
99.2128 99.208 99.5973 99.591 99.5806 99.5665 99.549 99.5284 99.5054 99.4803
99.4537 99.4262 99.3981 99.3701 99.3425 99.3158 99.2903 99.2664 99.2443 99.2243
99.2066 99.1913 99.1787 99.1687 99.1615 99.1572 99.4901 99.4847 99.4759 99.4638
99.4488 99.4313 99.4115 99.3899 99.367 99.3431 99.3188 99.2945 99.2704 99.2471
99.2247 99.2037 99.1843 99.1666 99.1509 99.1374 99.1262 99.1174 99.111 99.1071
99.3911 99.3866 99.379 99.3687 99.3559 99.3408 99.3238 99.3052 99.2855 99.2648
99.2438 99.2226 99.2016 99.1812 99.1616 99.1432 99.1261 99.1105 99.0967 99.0848
99.0748 99.067 99.0614 99.0579 99.2997 99.2958 99.2893 99.2805 99.2695 99.2566
99.2419 99.2259 99.2088 99.191 99.1727 99.1542 99.136 99.1182 99.101 99.0849
99.0698 99.0562 99.044 99.0334 99.0247 99.0177 99.0127 99.0097 99.215 99.2116
99.2061 99.1985 99.1891 99.1779 99.1653 99.1515 99.1367 99.1212 99.1054 99.0893
99.0734 99.0579 99.0429 99.0287 99.0155 99.0035 98.9928 98.9835 98.9758 98.9697
98.9653 98.9626 99.1363 99.1334 99.1287 99.1222 99.114 99.1044 99.0936 99.0816
99.0688 99.0554 99.0416 99.0277 99.0138 99.0002 98.9872 98.9748 98.9632 98.9526
98.9432 98.9351 98.9282 98.9229 98.919 98.9166 99.0631 99.0606 99.0566 99.051
99.0439 99.0357 99.0263 99.0159 99.0048 98.9932 98.9812 98.9691 98.957 98.9452
98.9338 98.9229 98.9128 98.9035 98.8953 98.8881 98.8821 98.8774 98.8739 98.8719
98.9949 98.9927 98.9892 98.9844 98.9783 98.9712 98.963 98.9541 98.9445 98.9344
98.924 98.9135 98.9029 98.8926 98.8826 98.8731 98.8643 98.8562 98.8489 98.8426
98.8373 98.8332 98.8302 98.8283 98.9311 98.9293 98.9262 98.9221 98.9168 98.9106
98.9036 98.8959 98.8875 98.8788 98.8697 98.8606 98.8514 98.8424 98.8337 98.8254
98.8176 98.8105 98.8041 98.7986 98.794 98.7903 98.7877 98.7861 98.8714 98.8698
98.8672 98.8636 98.8591 98.8537 98.8476 98.8409 98.8337 98.8261 98.8182 98.8102
98.8022 98.7944 98.7868 98.7795 98.7727 98.7665 98.7609 98.7561 98.752 98.7488
98.7465 98.7451 98.8154 98.814 98.8118 98.8086 98.8047 98.8001 98.7948 98.789
98.7827 98.7761 98.7693 98.7623 98.7553 98.7485 98.7418 98.7355 98.7296 98.7241
98.7193 98.715 98.7115 98.7086 98.7066 98.7054 98.7628 98.7616 98.7596 98.7569
98.7535 98.7495 98.7449 98.7399 98.7344 98.7287 98.7227 98.7167 98.7106 98.7046
98.6988 98.6933 98.6881 98.6833 98.679 98.6753 98.6722 98.6697 98.668 98.6669
98.7132 98.7122 98.7105 98.7081 98.7052 98.7017 98.6977 98.6933 98.6886 98.6836
98.6784 98.6731 98.6678 98.6626 98.6575 98.6527 98.6482 98.644 98.6403 98.637
98.6343 98.6321 98.6305 98.6296 98.6664 98.6655 98.664 98.662 98.6594 98.6564
98.6529 98.6491 98.645 98.6406 98.6361 98.6315 98.6269 98.6224 98.6179 98.6137
98.6097 98.6061 98.6028 98.6 98.5976 98.5957 98.5943 98.5935 98.6221 98.6213
98.6201 98.6183 98.6161 98.6134 98.6104 98.6071 98.6035 98.5997 98.5958 98.5918
98.5877 98.5838 98.5799 98.5762 98.5727 98.5695 98.5667 98.5642 98.5621 98.5604
98.5592 98.5585 98.5802 98.5795 98.5784 98.5768 98.5749 98.5726 98.57 98.5671
98.5639 98.5606 98.5572 98.5537 98.5502 98.5467 98.5433 98.5401 98.537 98.5342
98.5317 98.5295 98.5277 98.5263 98.5252 98.5246 98.5403 98.5397 98.5387 98.5374
98.5357 98.5337 98.5314 98.5289 98.5261 98.5232 98.5202 98.5172 98.5141 98.5111
98.5081 98.5053 98.5026 98.5002 98.498 98.496 98.4944 98.4931 98.4922 98.4917
98.5023 98.5018 98.5009 98.4998 98.4983 98.4965 98.4945 98.4923 98.4899 98.4874
98.4848 98.4821 98.4794 98.4767 98.4741 98.4717 98.4693 98.4672 98.4652 98.4636
98.4621 98.461 98.4602 98.4597 98.4661 98.4656 98.4649 98.4638 98.4625 98.461
98.4593 98.4573 98.4552 98.453 98.4507 98.4483 98.446 98.4436 98.4414 98.4392
98.4371 98.4352 98.4335 98.4321 98.4308 98.4298 98.4291 98.4287 98.4313 98.4309
98.4303 98.4294 98.4283 98.4269 98.4254 98.4237 98.4218 98.4199 98.4179 98.4158
98.4137 98.4116 98.4096 98.4077 98.4059 98.4042 98.4027 98.4014 98.4003 98.3995
98.3988 98.3984 98.398 98.3977 98.3971 98.3963 98.3953 98.3941 98.3928 98.3913
98.3896 98.3879 98.3861 98.3843 98.3825 98.3807 98.3789 98.3772 98.3756 98.3741
98.3728 98.3716 98.3707 98.3699 98.3693 98.369 98.366 98.3656 98.3651 98.3644
98.3636 98.3625 98.3613 98.36 98.3585 98.357 98.3554 98.3538 98.3522 98.3506
98.349 98.3475 98.3461 98.3448 98.3436 98.3426 98.3417 98.341 98.3405 98.3402
98.335 98.3347 98.3343 98.3336 98.3329 98.3319 98.3309 98.3297 98.3284 98.327
98.3256 98.3242 98.3227 98.3213 98.3199 98.3186 98.3173 98.3161 98.3151 98.3142
98.3134 98.3128 98.3123 98.3121 98.305 98.3048 98.3044 98.3038 98.3031 98.3023
98.3013 98.3003 98.2991 98.2979 98.2966 98.2953 98.294 98.2928 98.2915 98.2903
98.2892 98.2881 98.2872 98.2863 98.2857 98.2851 98.2847 98.2845 98.2759 98.2757
98.2753 98.2748 98.2742 98.2734 98.2726 98.2716 98.2706 98.2695 98.2683 98.2672
98.266 98.2648 98.2637 98.2626 98.2616 98.2606 98.2598 98.259 98.2584 98.2579
98.2575 98.2573 98.2476 98.2474 98.247 98.2466 98.246 98.2453 98.2445 98.2436
98.2427 98.2417 98.2406 98.2396 98.2385 98.2374 98.2364 98.2354 98.2345 98.2336
98.2328 98.2321 98.2316 98.2311 98.2308 98.2306 98.2198 98.2197 98.2194 98.2189
98.2184 98.2178 98.217 98.2162 98.2153 98.2144 98.2135 98.2125 98.2115 98.2105
98.2095 98.2086 98.2077 98.2069 98.2062 98.2056 98.205 98.2046 98.2043 98.2041
98.1927 98.1925 98.1922 98.1918 98.1913 98.1907 98.19 98.1893 98.1884 98.1876
98.1867 98.1857 98.1848 98.1839 98.183 98.1821 98.1813 98.1805 98.1799 98.1793
98.1788 98.1784 98.1781 98.1779 98.1659 98.1657 98.1655 98.1651 98.1646 98.164
98.1634 98.1627 98.1619 98.1611 98.1602 98.1593 98.1584 98.1575 98.1567 98.1559
98.1551 98.1544 98.1537 98.1532 98.1527 98.1523 98.152 98.1519 98.1395 98.1393
98.1391 98.1387 98.1382 98.1377 98.1371 98.1364 98.1356 98.1348 98.134 98.1331
98.1322 98.1314 98.1306 98.1297 98.129 98.1283 98.1277 98.1271 98.1267 98.1263
98.126 98.1259 98.1133 98.1132 98.1129 98.1125 98.1121 98.1115 98.1109 98.1102
98.1095 98.1087 98.1079 98.107 98.1062 98.1053 98.1045 98.1037 98.1029 98.1023
98.1016 98.1011 98.1006 98.1003 98.1 98.0998 98.0873 98.0871 98.0869 98.0865
98.086 98.0855 98.0849 98.0842 98.0834 98.0826 98.0818 98.0809 98.0801 98.0792
98.0784 98.0776 98.0768 98.0762 98.0755 98.075 98.0745 98.0741 98.0739 98.0737
98.0613 98.0612 98.0609 98.0605 98.0601 98.0595 98.0589 98.0581 98.0574 98.0566
98.0557 98.0548 98.0539 98.0531 98.0522 98.0514 98.0506 98.0499 98.0493 98.0487
98.0482 98.0478 98.0476 98.0474 98.0354 98.0352 98.0349 98.0345 98.034 98.0334
98.0328 98.032 98.0312 98.0304 98.0295 98.0286 98.0276 98.0267 98.0258 98.025
98.0242 98.0234 98.0227 98.0221 98.0216 98.0212 98.021 98.0208 98.0093 98.0091
98.0088 98.0084 98.0079 98.0072 98.0065 98.0057 98.0049 98.004 98.003 98.002
98.0011 98.0001 97.9991 97.9982 97.9974 97.9966 97.9959 97.9952 97.9947 97.9943
97.994 97.9938 97.983 97.9828 97.9825 97.982 97.9815 97.9808 97.98 97.9792
97.9783 97.9773 97.9763 97.9752 97.9742 97.9731 97.9721 97.9711 97.9702 97.9693
97.9685 97.9679 97.9673 97.9668 97.9665 97.9663 97.9565 97.9563 97.9559 97.9554
97.9548 97.9541 97.9532 97.9523 97.9513 97.9502 97.9491 97.948 97.9468 97.9457
97.9446 97.9435 97.9425 97.9415 97.9407 97.9399 97.9393 97.9388 97.9385 97.9382
97.9296 97.9294 97.929 97.9284 97.9278 97.9269 97.926 97.925 97.9239 97.9227
97.9215 97.9202 97.9189 97.9177 97.9164 97.9153 97.9141 97.9131 97.9122 97.9113
97.9107 97.9101 97.9097 97.9095 97.9023 97.902 97.9016 97.901 97.9002 97.8993
97.8983 97.8972 97.896 97.8946 97.8933 97.8919 97.8904 97.889 97.8877 97.8863
97.8851 97.8839 97.8829 97.882 97.8812 97.8806 97.8802 97.8799 97.8745 97.8742
97.8737 97.873 97.8722 97.8712 97.8701 97.8688 97.8674 97.8659 97.8644 97.8628
97.8612 97.8596 97.8581 97.8566 97.8552 97.8539 97.8528 97.8517 97.8509 97.8502
97.8497 97.8494 97.8461 97.8458 97.8452 97.8445 97.8435 97.8424 97.8411 97.8397
97.8381 97.8365 97.8347 97.833 97.8312 97.8294 97.8277 97.826 97.8244 97.8229
97.8216 97.8205 97.8195 97.8187 97.8182 97.8178 97.8171 97.8167 97.8161 97.8153
97.8142 97.8129 97.8115 97.8098 97.8081 97.8062 97.8042 97.8022 97.8002 97.7982
97.7962 97.7943 97.7925 97.7909 97.7894 97.7881 97.787 97.7861 97.7855 97.7851
97.7874 97.7869 97.7862 97.7853 97.7841 97.7826 97.781 97.7791 97.7771 97.775
97.7728 97.7705 97.7682 97.7659 97.7637 97.7615 97.7595 97.7576 97.7559 97.7544
97.7531 97.7521 97.7514 97.751 97.7568 97.7564 97.7556 97.7545 97.7531 97.7515
97.7496 97.7475 97.7452 97.7428 97.7403 97.7377 97.7351 97.7325 97.7299 97.7274
97.7251 97.723 97.721 97.7193 97.7179 97.7167 97.7159 97.7154 97.7255 97.7249
97.724 97.7228 97.7212 97.7194 97.7172 97.7148 97.7122 97.7095 97.7066 97.7037
97.7007 97.6977 97.6948 97.692 97.6893 97.6868 97.6846 97.6827 97.681 97.6797
97.6788 97.6782 97.6932 97.6926 97.6916 97.6901 97.6884 97.6862 97.6838 97.6811
97.6781 97.675 97.6717 97.6683 97.6649 97.6615 97.6581 97.6549 97.6519 97.6491
97.6465 97.6443 97.6424 97.6409 97.6398 97.6392 97.66 97.6593 97.6581 97.6565
97.6544 97.652 97.6492 97.6461 97.6428 97.6392 97.6354 97.6315 97.6276 97.6237
97.6199 97.6162 97.6127 97.6095 97.6066 97.604 97.6018 97.6001 97.5989 97.5981
97.6257 97.6249 97.6236 97.6217 97.6194 97.6166 97.6134 97.6099 97.606 97.6019
97.5976 97.5932 97.5887 97.5843 97.5799 97.5756 97.5716 97.5679 97.5646 97.5616
97.5591 97.5572 97.5557 97.5548 97.5904 97.5894 97.5879 97.5858 97.5832 97.58
97.5764 97.5723 97.5679 97.5632 97.5583 97.5532 97.5481 97.543 97.5379 97.5331
97.5285 97.5242 97.5203 97.5169 97.5141 97.5118 97.5101 97.5091 97.5539 97.5528
97.5511 97.5487 97.5457 97.5421 97.5379 97.5333 97.5283 97.5229 97.5172 97.5114
97.5055 97.4997 97.4939 97.4883 97.483 97.4781 97.4736 97.4697 97.4664 97.4638
97.4619 97.4607 97.5163 97.5151 97.5131 97.5104 97.5069 97.5028 97.498 97.4928
97.487 97.4808 97.4744 97.4677 97.461 97.4542 97.4476 97.4412 97.4351 97.4294
97.4243 97.4198 97.416 97.4129 97.4107 97.4094 97.4775 97.4761 97.4738 97.4707
97.4668 97.4621 97.4567 97.4506 97.444 97.437 97.4296 97.422 97.4142 97.4065
97.3988 97.3914 97.3844 97.3779 97.372 97.3668 97.3624 97.3589 97.3563 97.3548
97.4375 97.4359 97.4333 97.4298 97.4253 97.4199 97.4137 97.4068 97.3993 97.3913
97.3828 97.374 97.3651 97.3562 97.3474 97.3389 97.3308 97.3233 97.3165 97.3105
97.3054 97.3013 97.2984 97.2966 97.3962 97.3945 97.3915 97.3875 97.3824 97.3763
97.3692 97.3613 97.3527 97.3435 97.3338 97.3238 97.3136 97.3033 97.2932 97.2834
97.2741 97.2654 97.2575 97.2506 97.2447 97.24 97.2366 97.2345 97.3538 97.3518
97.3484 97.3438 97.338 97.3311 97.323 97.314 97.3042 97.2937 97.2826 97.2711
97.2593 97.2475 97.2359 97.2246 97.2139 97.2038 97.1947 97.1867 97.1798 97.1744
97.1704 97.168 97.3101 97.3079 97.3041 97.2989 97.2922 97.2843 97.2752 97.2649
97.2537 97.2416 97.2289 97.2157 97.2023 97.1887 97.1753 97.1623 97.1499 97.1383
97.1277 97.1184 97.1105 97.1042 97.0996 97.0968 97.2653 97.2627 97.2585 97.2525
97.245 97.236 97.2256 97.2139 97.2011 97.1873 97.1728 97.1577 97.1422 97.1267
97.1113 97.0962 97.0819 97.0685 97.0562 97.0454 97.0362 97.0288 97.0235 97.0202
97.2194 97.2165 97.2116 97.2049 97.1964 97.1862 97.1743 97.161 97.1464 97.1307
97.1141 97.0968 97.0791 97.0612 97.0434 97.0261 97.0095 96.9939 96.9797 96.9671
96.9564 96.9479 96.9416 96.9378 97.1724 97.1691 97.1637 97.156 97.1464 97.1348
97.1214 97.1063 97.0897 97.0717 97.0527 97.0329 97.0126 96.992 96.9715 96.9515
96.9323 96.9142 96.8977 96.8831 96.8706 96.8606 96.8533 96.8489 97.1245 97.1208
97.1146 97.106 97.0951 97.082 97.0668 97.0496 97.0308 97.0103 96.9886 96.966
96.9426 96.919 96.8953 96.8722 96.8499 96.829 96.8098 96.7927 96.7782 96.7665
96.7579 96.7527 97.0758 97.0716 97.0646 97.055 97.0427 97.0278 97.0106 96.9912
96.9697 96.9465 96.9218 96.8958 96.869 96.8418 96.8146 96.7878 96.762 96.7377
96.7153 96.6953 96.6783 96.6646 96.6545 96.6484 97.0264 97.0217 97.0138 97.003
96.9891 96.9724 96.953 96.931 96.9067 96.8803 96.8521 96.8224 96.7917 96.7604
96.729 96.6981 96.6681 96.6397 96.6136 96.5903 96.5703 96.5541 96.5423 96.5351
96.9765 96.9712 96.9624 96.9502 96.9347 96.9159 96.894 96.8692 96.8416 96.8117
96.7796 96.7457 96.7106 96.6746 96.6384 96.6025 96.5677 96.5346 96.504 96.4766
96.4531 96.4341 96.4201 96.4116 96.9262 96.9203 96.9106 96.8969 96.8795 96.8584
96.8338 96.8059 96.7748 96.7409 96.7044 96.6658 96.6255 96.5842 96.5424 96.5008
96.4603 96.4217 96.3858 96.3536 96.3258 96.3033 96.2867 96.2766 96.876 96.8694
96.8585 96.8433 96.8239 96.8003 96.7727 96.7413 96.7063 96.6679 96.6266 96.5826