# vtk DataFile Version 2.0
domain, Created by Gmsh 4.14.0 
ASCII
DATASET UNSTRUCTURED_GRID
POINTS 77 double
0 0 0
1 0 0
1 0.5 0
0 0.5 0
0.2 0 0
0.4 0 0
0.6000000000000001 0 0
0.8 0 0
0.1 0 0
0.3 0 0
0.5 0 0
0.7000000000000001 0 0
0.9 0 0
1 0.1666666666666667 0
1 0.3333333333333333 0
1 0.08333333333333333 0
1 0.25 0
1 0.4166666666666666 0
0.8 0.5 0
0.6 0.5 0
0.3999999999999999 0.5 0
0.2 0.5 0
0.9 0.5 0
0.7 0.5 0
0.5 0.5 0
0.2999999999999999 0.5 0
0.09999999999999998 0.5 0
0 0.3333333333333334 0
0 0.1666666666666667 0
0 0.4166666666666667 0
0 0.25 0
0 0.08333333333333337 0
0.2000000000000001 0.1666666666666667 0
0.2 0.3333333333333334 0
0.4 0.1666666666666667 0
0.3999999999999999 0.3333333333333334 0
0.6000000000000001 0.1666666666666667 0
0.6000000000000001 0.3333333333333333 0
0.7999999999999999 0.1666666666666667 0
0.8 0.3333333333333333 0
0.2000000000000001 0.08333333333333334 0
0.1 0.1666666666666667 0
0.1000000000000001 0.08333333333333331 0
0.2 0.25 0
0.09999999999999998 0.3333333333333334 0
0.1 0.25 0
0.2 0.4166666666666667 0
0.09999999999999998 0.4166666666666667 0
0.4 0.08333333333333331 0
0.3 0.1666666666666667 0
0.3 0.08333333333333337 0
0.4 0.25 0
0.2999999999999999 0.3333333333333334 0
0.3 0.25 0
0.3999999999999999 0.4166666666666667 0
0.2999999999999999 0.4166666666666667 0
0.6000000000000001 0.08333333333333331 0
0.5 0.1666666666666667 0
0.5 0.08333333333333331 0
0.6000000000000001 0.25 0
0.5 0.3333333333333333 0
0.5 0.25 0
0.6 0.4166666666666666 0
0.5 0.4166666666666667 0
0.8 0.08333333333333331 0
0.7 0.1666666666666667 0
0.7 0.08333333333333331 0
0.8 0.25 0
0.7000000000000001 0.3333333333333333 0
0.7000000000000001 0.25 0
0.8 0.4166666666666666 0
0.7 0.4166666666666666 0
0.8999999999999999 0.1666666666666667 0
0.8999999999999999 0.08333333333333331 0
0.9 0.3333333333333333 0
0.9 0.25 0
0.9 0.4166666666666666 0

CELLS 31 214
3 0 4 8
3 4 5 9
3 5 6 10
3 6 7 11
3 7 1 12
3 1 13 15
3 13 14 16
3 14 2 17
3 2 18 22
3 18 19 23
3 19 20 24
3 20 21 25
3 21 3 26
3 3 27 29
3 27 28 30
3 28 0 31
9 0 4 32 28 8 40 41 31 42
9 28 32 33 27 41 43 44 30 45
9 27 33 21 3 44 46 26 29 47
9 4 5 34 32 9 48 49 40 50
9 32 34 35 33 49 51 52 43 53
9 33 35 20 21 52 54 25 46 55
9 5 6 36 34 10 56 57 48 58
9 34 36 37 35 57 59 60 51 61
9 35 37 19 20 60 62 24 54 63
9 6 7 38 36 11 64 65 56 66
9 36 38 39 37 65 67 68 59 69
9 37 39 18 19 68 70 23 62 71
9 7 1 13 38 12 15 72 64 73
9 38 13 14 39 72 16 74 67 75
9 39 14 2 18 74 17 22 70 76

CELL_TYPES 31
21
21
21
21
21
21
21
21
21
21
21
21
21
21
21
21
28
28
28
28
28
28
28
28
28
28
28
28
28
28
28

CELL_DATA 31
SCALARS CellEntityIds int 1
LOOKUP_TABLE default
2
2
2
2
2
2
2
2
1
1
1
1
1
2
2
2
1
1
1
1
1
1
1
1
1
1
1
1
1
1
1
