# vtk DataFile Version 2.0
domain, Created by Gmsh 4.14.0 
ASCII
DATASET UNSTRUCTURED_GRID
POINTS 561 double
0 0 0
1 0 0
1 0.5 0
0 0.5 0
0.0625 0 0
0.125 0 0
0.1875 0 0
0.25 0 0
0.3125 0 0
0.375 0 0
0.4375 0 0
0.5 0 0
0.5625 0 0
0.625 0 0
0.6875 0 0
0.75 0 0
0.8125 0 0
0.875 0 0
0.9375 0 0
0.03125 0 0
0.09375 0 0
0.15625 0 0
0.21875 0 0
0.28125 0 0
0.34375 0 0
0.40625 0 0
0.46875 0 0
0.53125 0 0
0.59375 0 0
0.65625 0 0
0.71875 0 0
0.78125 0 0
0.84375 0 0
0.90625 0 0
0.96875 0 0
1 0.0625 0
1 0.125 0
1 0.1875 0
1 0.25 0
1 0.3125 0
1 0.375 0
1 0.4375 0
1 0.03125 0
1 0.09375 0
1 0.15625 0
1 0.21875 0
1 0.28125 0
1 0.34375 0
1 0.40625 0
1 0.46875 0
0.9375 0.5 0
0.875 0.5 0
0.8125 0.5 0
0.75 0.5 0
0.6875 0.5 0
0.625 0.5 0
0.5625 0.5 0
0.5 0.5 0
0.4375 0.5 0
0.375 0.5 0
0.3125 0.5 0
0.25 0.5 0
0.1875 0.5 0
0.125 0.5 0
0.0625 0.5 0
0.96875 0.5 0
0.90625 0.5 0
0.84375 0.5 0
0.78125 0.5 0
0.71875 0.5 0
0.65625 0.5 0
0.59375 0.5 0
0.53125 0.5 0
0.46875 0.5 0
0.40625 0.5 0
0.34375 0.5 0
0.28125 0.5 0
0.21875 0.5 0
0.15625 0.5 0
0.09375 0.5 0
0.03125 0.5 0
0 0.4375 0
0 0.375 0
0 0.3125 0
0 0.25 0
0 0.1875 0
0 0.125 0
0 0.0625 0
0 0.46875 0
0 0.40625 0
0 0.34375 0
0 0.28125 0
0 0.21875 0
0 0.15625 0
0 0.09375 0
0 0.03125 0
0.0625 0.0625 0
0.0625 0.125 0
0.0625 0.1875 0
0.0625 0.25 0
0.0625 0.3125 0
0.0625 0.375 0
0.0625 0.4375 0
0.125 0.0625 0
0.125 0.125 0
0.125 0.1875 0
0.125 0.25 0
0.125 0.3125 0
0.125 0.375 0
0.125 0.4375 0
0.1875 0.0625 0
0.1875 0.125 0
0.1875 0.1875 0
0.1875 0.25 0
0.1875 0.3125 0
0.1875 0.375 0
0.1875 0.4375 0
0.25 0.0625 0
0.25 0.125 0
0.25 0.1875 0
0.25 0.25 0
0.25 0.3125 0
0.25 0.375 0
0.25 0.4375 0
0.3125 0.0625 0
0.3125 0.125 0
0.3125 0.1875 0
0.3125 0.25 0
0.3125 0.3125 0
0.3125 0.375 0
0.3125 0.4375 0
0.375 0.0625 0
0.375 0.125 0
0.375 0.1875 0
0.375 0.25 0
0.375 0.3125 0
0.375 0.375 0
0.375 0.4375 0
0.4375 0.0625 0
0.4375 0.125 0
0.4375 0.1875 0
0.4375 0.25 0
0.4375 0.3125 0
0.4375 0.375 0
0.4375 0.4375 0
0.5 0.0625 0
0.5 0.125 0
0.5 0.1875 0
0.5 0.25 0
0.5 0.3125 0
0.5 0.375 0
0.5 0.4375 0
0.5625 0.0625 0
0.5625 0.125 0
0.5625 0.1875 0
0.5625 0.25 0
0.5625 0.3125 0
0.5625 0.375 0
0.5625 0.4375 0
0.625 0.0625 0
0.625 0.125 0
0.625 0.1875 0
0.625 0.25 0
0.625 0.3125 0
0.625 0.375 0
0.625 0.4375 0
0.6875 0.0625 0
0.6875 0.125 0
0.6875 0.1875 0
0.6875 0.25 0
0.6875 0.3125 0
0.6875 0.375 0
0.6875 0.4375 0
0.75 0.0625 0
0.75 0.125 0
0.75 0.1875 0
0.75 0.25 0
0.75 0.3125 0
0.75 0.375 0
0.75 0.4375 0
0.8125 0.0625 0
0.8125 0.125 0
0.8125 0.1875 0
0.8125 0.25 0
0.8125 0.3125 0
0.8125 0.375 0
0.8125 0.4375 0
0.875 0.0625 0
0.875 0.125 0
0.875 0.1875 0
0.875 0.25 0
0.875 0.3125 0
0.875 0.375 0
0.875 0.4375 0
0.9375 0.0625 0
0.9375 0.125 0
0.9375 0.1875 0
0.9375 0.25 0
0.9375 0.3125 0
0.9375 0.375 0
0.9375 0.4375 0
0.0625 0.03125 0
0.03125 0.0625 0
0.03125 0.03125 0
0.0625 0.09375 0
0.03125 0.125 0
0.03125 0.09375 0
0.0625 0.15625 0
0.03125 0.1875 0
0.03125 0.15625 0
0.0625 0.21875 0
0.03125 0.25 0
0.03125 0.21875 0
0.0625 0.28125 0
0.03125 0.3125 0
0.03125 0.28125 0
0.0625 0.34375 0
0.03125 0.375 0
0.03125 0.34375 0
0.0625 0.40625 0
0.03125 0.4375 0
0.03125 0.40625 0
0.0625 0.46875 0
0.03125 0.46875 0
0.125 0.03125 0
0.09375 0.0625 0
0.09375 0.03125 0
0.125 0.09375 0
0.09375 0.125 0
0.09375 0.09375 0
0.125 0.15625 0
0.09375 0.1875 0
0.09375 0.15625 0
0.125 0.21875 0
0.09375 0.25 0
0.09375 0.21875 0
0.125 0.28125 0
0.09375 0.3125 0
0.09375 0.28125 0
0.125 0.34375 0
0.09375 0.375 0
0.09375 0.34375 0
0.125 0.40625 0
0.09375 0.4375 0
0.09375 0.40625 0
0.125 0.46875 0
0.09375 0.46875 0
0.1875 0.03125 0
0.15625 0.0625 0
0.15625 0.03125 0
0.1875 0.09375 0
0.15625 0.125 0
0.15625 0.09375 0
0.1875 0.15625 0
0.15625 0.1875 0
0.15625 0.15625 0
0.1875 0.21875 0
0.15625 0.25 0
0.15625 0.21875 0
0.1875 0.28125 0
0.15625 0.3125 0
0.15625 0.28125 0
0.1875 0.34375 0
0.15625 0.375 0
0.15625 0.34375 0
0.1875 0.40625 0
0.15625 0.4375 0
0.15625 0.40625 0
0.1875 0.46875 0
0.15625 0.46875 0
0.25 0.03125 0
0.21875 0.0625 0
0.21875 0.03125 0
0.25 0.09375 0
0.21875 0.125 0
0.21875 0.09375 0
0.25 0.15625 0
0.21875 0.1875 0
0.21875 0.15625 0
0.25 0.21875 0
0.21875 0.25 0
0.21875 0.21875 0
0.25 0.28125 0
0.21875 0.3125 0
0.21875 0.28125 0
0.25 0.34375 0
0.21875 0.375 0
0.21875 0.34375 0
0.25 0.40625 0
0.21875 0.4375 0
0.21875 0.40625 0
0.25 0.46875 0
0.21875 0.46875 0
0.3125 0.03125 0
0.28125 0.0625 0
0.28125 0.03125 0
0.3125 0.09375 0
0.28125 0.125 0
0.28125 0.09375 0
0.3125 0.15625 0
0.28125 0.1875 0
0.28125 0.15625 0
0.3125 0.21875 0
0.28125 0.25 0
0.28125 0.21875 0
0.3125 0.28125 0
0.28125 0.3125 0
0.28125 0.28125 0
0.3125 0.34375 0
0.28125 0.375 0
0.28125 0.34375 0
0.3125 0.40625 0
0.28125 0.4375 0
0.28125 0.40625 0
0.3125 0.46875 0
0.28125 0.46875 0
0.375 0.03125 0
0.34375 0.0625 0
0.34375 0.03125 0
0.375 0.09375 0
0.34375 0.125 0
0.34375 0.09375 0
0.375 0.15625 0
0.34375 0.1875 0
0.34375 0.15625 0
0.375 0.21875 0
0.34375 0.25 0
0.34375 0.21875 0
0.375 0.28125 0
0.34375 0.3125 0
0.34375 0.28125 0
0.375 0.34375 0
0.34375 0.375 0
0.34375 0.34375 0
0.375 0.40625 0
0.34375 0.4375 0
0.34375 0.40625 0
0.375 0.46875 0
0.34375 0.46875 0
0.4375 0.03125 0
0.40625 0.0625 0
0.40625 0.03125 0
0.4375 0.09375 0
0.40625 0.125 0
0.40625 0.09375 0
0.4375 0.15625 0
0.40625 0.1875 0
0.40625 0.15625 0
0.4375 0.21875 0
0.40625 0.25 0
0.40625 0.21875 0
0.4375 0.28125 0
0.40625 0.3125 0
0.40625 0.28125 0
0.4375 0.34375 0
0.40625 0.375 0
0.40625 0.34375 0
0.4375 0.40625 0
0.40625 0.4375 0
0.40625 0.40625 0
0.4375 0.46875 0
0.40625 0.46875 0
0.5 0.03125 0
0.46875 0.0625 0
0.46875 0.03125 0
0.5 0.09375 0
0.46875 0.125 0
0.46875 0.09375 0
0.5 0.15625 0
0.46875 0.1875 0
0.46875 0.15625 0
0.5 0.21875 0
0.46875 0.25 0
0.46875 0.21875 0
0.5 0.28125 0
0.46875 0.3125 0
0.46875 0.28125 0
0.5 0.34375 0
0.46875 0.375 0
0.46875 0.34375 0
0.5 0.40625 0
0.46875 0.4375 0
0.46875 0.40625 0
0.5 0.46875 0
0.46875 0.46875 0
0.5625 0.03125 0
0.53125 0.0625 0
0.53125 0.03125 0
0.5625 0.09375 0
0.53125 0.125 0
0.53125 0.09375 0
0.5625 0.15625 0
0.53125 0.1875 0
0.53125 0.15625 0
0.5625 0.21875 0
0.53125 0.25 0
0.53125 0.21875 0
0.5625 0.28125 0
0.53125 0.3125 0
0.53125 0.28125 0
0.5625 0.34375 0
0.53125 0.375 0
0.53125 0.34375 0
0.5625 0.40625 0
0.53125 0.4375 0
0.53125 0.40625 0
0.5625 0.46875 0
0.53125 0.46875 0
0.625 0.03125 0
0.59375 0.0625 0
0.59375 0.03125 0
0.625 0.09375 0
0.59375 0.125 0
0.59375 0.09375 0
0.625 0.15625 0
0.59375 0.1875 0
0.59375 0.15625 0
0.625 0.21875 0
0.59375 0.25 0
0.59375 0.21875 0
0.625 0.28125 0
0.59375 0.3125 0
0.59375 0.28125 0
0.625 0.34375 0
0.59375 0.375 0
0.59375 0.34375 0
0.625 0.40625 0
0.59375 0.4375 0
0.59375 0.40625 0
0.625 0.46875 0
0.59375 0.46875 0
0.6875 0.03125 0
0.65625 0.0625 0
0.65625 0.03125 0
0.6875 0.09375 0
0.65625 0.125 0
0.65625 0.09375 0
0.6875 0.15625 0
0.65625 0.1875 0
0.65625 0.15625 0
0.6875 0.21875 0
0.65625 0.25 0
0.65625 0.21875 0
0.6875 0.28125 0
0.65625 0.3125 0
0.65625 0.28125 0
0.6875 0.34375 0
0.65625 0.375 0
0.65625 0.34375 0
0.6875 0.40625 0
0.65625 0.4375 0
0.65625 0.40625 0
0.6875 0.46875 0
0.65625 0.46875 0
0.75 0.03125 0
0.71875 0.0625 0
0.71875 0.03125 0
0.75 0.09375 0
0.71875 0.125 0
0.71875 0.09375 0
0.75 0.15625 0
0.71875 0.1875 0
0.71875 0.15625 0
0.75 0.21875 0
0.71875 0.25 0
0.71875 0.21875 0
0.75 0.28125 0
0.71875 0.3125 0
0.71875 0.28125 0
0.75 0.34375 0
0.71875 0.375 0
0.71875 0.34375 0
0.75 0.40625 0
0.71875 0.4375 0
0.71875 0.40625 0
0.75 0.46875 0
0.71875 0.46875 0
0.8125 0.03125 0
0.78125 0.0625 0
0.78125 0.03125 0
0.8125 0.09375 0
0.78125 0.125 0
0.78125 0.09375 0
0.8125 0.15625 0
0.78125 0.1875 0
0.78125 0.15625 0
0.8125 0.21875 0
0.78125 0.25 0
0.78125 0.21875 0
0.8125 0.28125 0
0.78125 0.3125 0
0.78125 0.28125 0
0.8125 0.34375 0
0.78125 0.375 0
0.78125 0.34375 0
0.8125 0.40625 0
0.78125 0.4375 0
0.78125 0.40625 0
0.8125 0.46875 0
0.78125 0.46875 0
0.875 0.03125 0
0.84375 0.0625 0
0.84375 0.03125 0
0.875 0.09375 0
0.84375 0.125 0
0.84375 0.09375 0
0.875 0.15625 0
0.84375 0.1875 0
0.84375 0.15625 0
0.875 0.21875 0
0.84375 0.25 0
0.84375 0.21875 0
0.875 0.28125 0
0.84375 0.3125 0
0.84375 0.28125 0
0.875 0.34375 0
0.84375 0.375 0
0.84375 0.34375 0
0.875 0.40625 0
0.84375 0.4375 0
0.84375 0.40625 0
0.875 0.46875 0
0.84375 0.46875 0
0.9375 0.03125 0
0.90625 0.0625 0
0.90625 0.03125 0
0.9375 0.09375 0
0.90625 0.125 0
0.90625 0.09375 0
0.9375 0.15625 0
0.90625 0.1875 0
0.90625 0.15625 0
0.9375 0.21875 0
0.90625 0.25 0
0.90625 0.21875 0
0.9375 0.28125 0
0.90625 0.3125 0
0.90625 0.28125 0
0.9375 0.34375 0
0.90625 0.375 0
0.90625 0.34375 0
0.9375 0.40625 0
0.90625 0.4375 0
0.90625 0.40625 0
0.9375 0.46875 0
0.90625 0.46875 0
0.96875 0.0625 0
0.96875 0.03125 0
0.96875 0.125 0
0.96875 0.09375 0
0.96875 0.1875 0
0.96875 0.15625 0
0.96875 0.25 0
0.96875 0.21875 0
0.96875 0.3125 0
0.96875 0.28125 0
0.96875 0.375 0
0.96875 0.34375 0
0.96875 0.4375 0
0.96875 0.40625 0
0.96875 0.46875 0

CELLS 176 1472
3 0 4 19
3 4 5 20
3 5 6 21
3 6 7 22
3 7 8 23
3 8 9 24
3 9 10 25
3 10 11 26
3 11 12 27
3 12 13 28
3 13 14 29
3 14 15 30
3 15 16 31
3 16 17 32
3 17 18 33
3 18 1 34
3 1 35 42
3 35 36 43
3 36 37 44
3 37 38 45
3 38 39 46
3 39 40 47
3 40 41 48
3 41 2 49
3 2 50 65
3 50 51 66
3 51 52 67
3 52 53 68
3 53 54 69
3 54 55 70
3 55 56 71
3 56 57 72
3 57 58 73
3 58 59 74
3 59 60 75
3 60 61 76
3 61 62 77
3 62 63 78
3 63 64 79
3 64 3 80
3 3 81 88
3 81 82 89
3 82 83 90
3 83 84 91
3 84 85 92
3 85 86 93
3 86 87 94
3 87 0 95
9 0 4 96 87 19 201 202 95 203
9 87 96 97 86 202 204 205 94 206
9 86 97 98 85 205 207 208 93 209
9 85 98 99 84 208 210 211 92 212
9 84 99 100 83 211 213 214 91 215
9 83 100 101 82 214 216 217 90 218
9 82 101 102 81 217 219 220 89 221
9 81 102 64 3 220 222 80 88 223
9 4 5 103 96 20 224 225 201 226
9 96 103 104 97 225 227 228 204 229
9 97 104 105 98 228 230 231 207 232
9 98 105 106 99 231 233 234 210 235
9 99 106 107 100 234 236 237 213 238
9 100 107 108 101 237 239 240 216 241
9 101 108 109 102 240 242 243 219 244
9 102 109 63 64 243 245 79 222 246
9 5 6 110 103 21 247 248 224 249
9 103 110 111 104 248 250 251 227 252
9 104 111 112 105 251 253 254 230 255
9 105 112 113 106 254 256 257 233 258
9 106 113 114 107 257 259 260 236 261
9 107 114 115 108 260 262 263 239 264
9 108 115 116 109 263 265 266 242 267
9 109 116 62 63 266 268 78 245 269
9 6 7 117 110 22 270 271 247 272
9 110 117 118 111 271 273 274 250 275
9 111 118 119 112 274 276 277 253 278
9 112 119 120 113 277 279 280 256 281
9 113 120 121 114 280 282 283 259 284
9 114 121 122 115 283 285 286 262 287
9 115 122 123 116 286 288 289 265 290
9 116 123 61 62 289 291 77 268 292
9 7 8 124 117 23 293 294 270 295
9 117 124 125 118 294 296 297 273 298
9 118 125 126 119 297 299 300 276 301
9 119 126 127 120 300 302 303 279 304
9 120 127 128 121 303 305 306 282 307
9 121 128 129 122 306 308 309 285 310
9 122 129 130 123 309 311 312 288 313
9 123 130 60 61 312 314 76 291 315
9 8 9 131 124 24 316 317 293 318
9 124 131 132 125 317 319 320 296 321
9 125 132 133 126 320 322 323 299 324
9 126 133 134 127 323 325 326 302 327
9 127 134 135 128 326 328 329 305 330
9 128 135 136 129 329 331 332 308 333
9 129 136 137 130 332 334 335 311 336
9 130 137 59 60 335 337 75 314 338
9 9 10 138 131 25 339 340 316 341
9 131 138 139 132 340 342 343 319 344
9 132 139 140 133 343 345 346 322 347
9 133 140 141 134 346 348 349 325 350
9 134 141 142 135 349 351 352 328 353
9 135 142 143 136 352 354 355 331 356
9 136 143 144 137 355 357 358 334 359
9 137 144 58 59 358 360 74 337 361
9 10 11 145 138 26 362 363 339 364
9 138 145 146 139 363 365 366 342 367
9 139 146 147 140 366 368 369 345 370
9 140 147 148 141 369 371 372 348 373
9 141 148 149 142 372 374 375 351 376
9 142 149 150 143 375 377 378 354 379
9 143 150 151 144 378 380 381 357 382
9 144 151 57 58 381 383 73 360 384
9 11 12 152 145 27 385 386 362 387
9 145 152 153 146 386 388 389 365 390
9 146 153 154 147 389 391 392 368 393
9 147 154 155 148 392 394 395 371 396
9 148 155 156 149 395 397 398 374 399
9 149 156 157 150 398 400 401 377 402
9 150 157 158 151 401 403 404 380 405
9 151 158 56 57 404 406 72 383 407
9 12 13 159 152 28 408 409 385 410
9 152 159 160 153 409 411 412 388 413
9 153 160 161 154 412 414 415 391 416
9 154 161 162 155 415 417 418 394 419
9 155 162 163 156 418 420 421 397 422
9 156 163 164 157 421 423 424 400 425
9 157 164 165 158 424 426 427 403 428
9 158 165 55 56 427 429 71 406 430
9 13 14 166 159 29 431 432 408 433
9 159 166 167 160 432 434 435 411 436
9 160 167 168 161 435 437 438 414 439
9 161 168 169 162 438 440 441 417 442
9 162 169 170 163 441 443 444 420 445
9 163 170 171 164 444 446 447 423 448
9 164 171 172 165 447 449 450 426 451
9 165 172 54 55 450 452 70 429 453
9 14 15 173 166 30 454 455 431 456
9 166 173 174 167 455 457 458 434 459
9 167 174 175 168 458 460 461 437 462
9 168 175 176 169 461 463 464 440 465
9 169 176 177 170 464 466 467 443 468
9 170 177 178 171 467 469 470 446 471
9 171 178 179 172 470 472 473 449 474
9 172 179 53 54 473 475 69 452 476
9 15 16 180 173 31 477 478 454 479
9 173 180 181 174 478 480 481 457 482
9 174 181 182 175 481 483 484 460 485
9 175 182 183 176 484 486 487 463 488
9 176 183 184 177 487 489 490 466 491
9 177 184 185 178 490 492 493 469 494
9 178 185 186 179 493 495 496 472 497
9 179 186 52 53 496 498 68 475 499
9 16 17 187 180 32 500 501 477 502
9 180 187 188 181 501 503 504 480 505
9 181 188 189 182 504 506 507 483 508
9 182 189 190 183 507 509 510 486 511
9 183 190 191 184 510 512 513 489 514
9 184 191 192 185 513 515 516 492 517
9 185 192 193 186 516 518 519 495 520
9 186 193 51 52 519 521 67 498 522
9 17 18 194 187 33 523 524 500 525
9 187 194 195 188 524 526 527 503 528
9 188 195 196 189 527 529 530 506 531
9 189 196 197 190 530 532 533 509 534
9 190 197 198 191 533 535 536 512 537
9 191 198 199 192 536 538 539 515 540
9 192 199 200 193 539 541 542 518 543
9 193 200 50 51 542 544 66 521 545
9 18 1 35 194 34 42 546 523 547
9 194 35 36 195 546 43 548 526 549
9 195 36 37 196 548 44 550 529 551
9 196 37 38 197 550 45 552 532 553
9 197 38 39 198 552 46 554 535 555
9 198 39 40 199 554 47 556 538 557
9 199 40 41 200 556 48 558 541 559
9 200 41 2 50 558 49 65 544 560

CELL_TYPES 176
21
21
21
21
21
21
21
21
21
21
21
21
21
21
21
21
21
21
21
21
21
21
21
21
21
21
21
21
21
21
21
21
21
21
21
21
21
21
21
21
21
21
21
21
21
21
21
21
28
28
28
28
28
28
28
28
28
28
28
28
28
28
28
28
28
28
28
28
28
28
28
28
28
28
28
28
28
28
28
28
28
28
28
28
28
28
28
28
28
28
28
28
28
28
28
28
28
28
28
28
28
28
28
28
28
28
28
28
28
28
28
28
28
28
28
28
28
28
28
28
28
28
28
28
28
28
28
28
28
28
28
28
28
28
28
28
28
28
28
28
28
28
28
28
28
28
28
28
28
28
28
28
28
28
28
28
28
28
28
28
28
28
28
28
28
28
28
28
28
28
28
28
28
28
28
28

CELL_DATA 176
SCALARS CellEntityIds int 1
LOOKUP_TABLE default
2
2
2
2
2
2
2
2
2
2
2
2
2
2
2
2
2
2
2
2
2
2
2
2
1
1
1
1
1
1
1
1
1
1
1
1
1
1
1
1
2
2
2
2
2
2
2
2
1
1
1
1
1
1
1
1
1
1
1
1
1
1
1
1
1
1
1
1
1
1
1
1
1
1
1
1
1
1
1
1
1
1
1
1
1
1
1
1
1
1
1
1
1
1
1
1
1
1
1
1
1
1
1
1
1
1
1
1
1
1
1
1
1
1
1
1
1
1
1
1
1
1
1
1
1
1
1
1
1
1
1
1
1
1
1
1
1
1
1
1
1
1
1
1
1
1
1
1
1
1
1
1
1
1
1
1
1
1
1
1
1
1
1
1
1
1
1
1
1
1
1
1
1
1
1
1
