# vtk DataFile Version 2.0
domain, Created by Gmsh 4.14.0 
ASCII
DATASET UNSTRUCTURED_GRID
POINTS 45 double
0 0 0
1 0 0
1 0.5 0
0 0.5 0
0.125 0 0
0.25 0 0
0.375 0 0
0.5 0 0
0.625 0 0
0.75 0 0
0.875 0 0
1 0.125 0
1 0.25 0
1 0.375 0
0.875 0.5 0
0.75 0.5 0
0.625 0.5 0
0.5 0.5 0
0.375 0.5 0
0.25 0.5 0
0.125 0.5 0
0 0.375 0
0 0.25 0
0 0.125 0
0.125 0.125 0
0.125 0.25 0
0.125 0.375 0
0.25 0.125 0
0.25 0.25 0
0.25 0.375 0
0.375 0.125 0
0.375 0.25 0
0.375 0.375 0
0.5 0.125 0
0.5 0.25 0
0.5 0.375 0
0.625 0.125 0
0.625 0.25 0
0.625 0.375 0
0.75 0.125 0
0.75 0.25 0
0.75 0.375 0
0.875 0.125 0
0.875 0.25 0
0.875 0.375 0

CELLS 56 232
2 0 4
2 4 5
2 5 6
2 6 7
2 7 8
2 8 9
2 9 10
2 10 1
2 1 11
2 11 12
2 12 13
2 13 2
2 2 14
2 14 15
2 15 16
2 16 17
2 17 18
2 18 19
2 19 20
2 20 3
2 3 21
2 21 22
2 22 23
2 23 0
4 0 4 24 23
4 23 24 25 22
4 22 25 26 21
4 21 26 20 3
4 4 5 27 24
4 24 27 28 25
4 25 28 29 26
4 26 29 19 20
4 5 6 30 27
4 27 30 31 28
4 28 31 32 29
4 29 32 18 19
4 6 7 33 30
4 30 33 34 31
4 31 34 35 32
4 32 35 17 18
4 7 8 36 33
4 33 36 37 34
4 34 37 38 35
4 35 38 16 17
4 8 9 39 36
4 36 39 40 37
4 37 40 41 38
4 38 41 15 16
4 9 10 42 39
4 39 42 43 40
4 40 43 44 41
4 41 44 14 15
4 10 1 11 42
4 42 11 12 43
4 43 12 13 44
4 44 13 2 14

CELL_TYPES 56
3
3
3
3
3
3
3
3
3
3
3
3
3
3
3
3
3
3
3
3
3
3
3
3
9
9
9
9
9
9
9
9
9
9
9
9
9
9
9
9
9
9
9
9
9
9
9
9
9
9
9
9
9
9
9
9

CELL_DATA 56
SCALARS CellEntityIds int 1
LOOKUP_TABLE default
2
2
2
2
2
2
2
2
2
2
2
2
1
1
1
1
1
1
1
1
2
2
2
2
1
1
1
1
1
1
1
1
1
1
1
1
1
1
1
1
1
1
1
1
1
1
1
1
1
1
1
1
1
1
1
1
