# vtk DataFile Version 2.0
domain, Created by Gmsh 4.14.0 
ASCII
DATASET UNSTRUCTURED_GRID
POINTS 153 double
0 0 0
1 0 0
1 0.5 0
0 0.5 0
0.125 0 0
0.25 0 0
0.375 0 0
0.5 0 0
0.625 0 0
0.75 0 0
0.875 0 0
0.06249999999999999 0 0
0.1875 0 0
0.3125 0 0
0.4375 0 0
0.5625 0 0
0.6875 0 0
0.8125 0 0
0.9375 0 0
1 0.125 0
1 0.25 0
1 0.375 0
1 0.06249999999999999 0
1 0.1875 0
1 0.3125 0
1 0.4375 0
0.875 0.5 0
0.75 0.5 0
0.625 0.5 0
0.5 0.5 0
0.375 0.5 0
0.25 0.5 0
0.125 0.5 0
0.9375 0.5 0
0.8125 0.5 0
0.6875 0.5 0
0.5625 0.5 0
0.4375 0.5 0
0.3125 0.5 0
0.1875 0.5 0
0.0625 0.5 0
0 0.375 0
0 0.25 0
0 0.125 0
0 0.4375 0
0 0.3125 0
0 0.1875 0
0 0.0625 0
0.125 0.125 0
0.125 0.25 0
0.125 0.375 0
0.25 0.125 0
0.25 0.25 0
0.25 0.375 0
0.375 0.125 0
0.375 0.25 0
0.375 0.375 0
0.5 0.125 0
0.5 0.25 0
0.5 0.375 0
0.625 0.125 0
0.625 0.25 0
0.625 0.375 0
0.75 0.125 0
0.75 0.25 0
0.75 0.375 0
0.875 0.125 0
0.875 0.25 0
0.875 0.375 0
0.125 0.0625 0
0.0625 0.125 0
0.0625 0.0625 0
0.125 0.1875 0
0.0625 0.25 0
0.0625 0.1875 0
0.125 0.3125 0
0.0625 0.375 0
0.0625 0.3125 0
0.125 0.4375 0
0.0625 0.4375 0
0.25 0.0625 0
0.1875 0.125 0
0.1875 0.0625 0
0.25 0.1875 0
0.1875 0.25 0
0.1875 0.1875 0
0.25 0.3125 0
0.1875 0.375 0
0.1875 0.3125 0
0.25 0.4375 0
0.1875 0.4375 0
0.375 0.0625 0
0.3125 0.125 0
0.3125 0.0625 0
0.375 0.1875 0
0.3125 0.25 0
0.3125 0.1875 0
0.375 0.3125 0
0.3125 0.375 0
0.3125 0.3125 0
0.375 0.4375 0
0.3125 0.4375 0
0.5 0.0625 0
0.4375 0.125 0
0.4375 0.0625 0
0.5 0.1875 0
0.4375 0.25 0
0.4375 0.1875 0
0.5 0.3125 0
0.4375 0.375 0
0.4375 0.3125 0
0.5 0.4375 0
0.4375 0.4375 0
0.625 0.0625 0
0.5625 0.125 0
0.5625 0.0625 0
0.625 0.1875 0
0.5625 0.25 0
0.5625 0.1875 0
0.625 0.3125 0
0.5625 0.375 0
0.5625 0.3125 0
0.625 0.4375 0
0.5625 0.4375 0
0.75 0.0625 0
0.6875 0.125 0
0.6875 0.0625 0
0.75 0.1875 0
0.6875 0.25 0
0.6875 0.1875 0
0.75 0.3125 0
0.6875 0.375 0
0.6875 0.3125 0
0.75 0.4375 0
0.6875 0.4375 0
0.875 0.0625 0
0.8125 0.125 0
0.8125 0.0625 0
0.875 0.1875 0
0.8125 0.25 0
0.8125 0.1875 0
0.875 0.3125 0
0.8125 0.375 0
0.8125 0.3125 0
0.875 0.4375 0
0.8125 0.4375 0
0.9375 0.125 0
0.9375 0.0625 0
0.9375 0.25 0
0.9375 0.1875 0
0.9375 0.375 0
0.9375 0.3125 0
0.9375 0.4375 0

CELLS 56 416
3 0 4 11
3 4 5 12
3 5 6 13
3 6 7 14
3 7 8 15
3 8 9 16
3 9 10 17
3 10 1 18
3 1 19 22
3 19 20 23
3 20 21 24
3 21 2 25
3 2 26 33
3 26 27 34
3 27 28 35
3 28 29 36
3 29 30 37
3 30 31 38
3 31 32 39
3 32 3 40
3 3 41 44
3 41 42 45
3 42 43 46
3 43 0 47
9 0 4 48 43 11 69 70 47 71
9 43 48 49 42 70 72 73 46 74
9 42 49 50 41 73 75 76 45 77
9 41 50 32 3 76 78 40 44 79
9 4 5 51 48 12 80 81 69 82
9 48 51 52 49 81 83 84 72 85
9 49 52 53 50 84 86 87 75 88
9 50 53 31 32 87 89 39 78 90
9 5 6 54 51 13 91 92 80 93
9 51 54 55 52 92 94 95 83 96
9 52 55 56 53 95 97 98 86 99
9 53 56 30 31 98 100 38 89 101
9 6 7 57 54 14 102 103 91 104
9 54 57 58 55 103 105 106 94 107
9 55 58 59 56 106 108 109 97 110
9 56 59 29 30 109 111 37 100 112
9 7 8 60 57 15 113 114 102 115
9 57 60 61 58 114 116 117 105 118
9 58 61 62 59 117 119 120 108 121
9 59 62 28 29 120 122 36 111 123
9 8 9 63 60 16 124 125 113 126
9 60 63 64 61 125 127 128 116 129
9 61 64 65 62 128 130 131 119 132
9 62 65 27 28 131 133 35 122 134
9 9 10 66 63 17 135 136 124 137
9 63 66 67 64 136 138 139 127 140
9 64 67 68 65 139 141 142 130 143
9 65 68 26 27 142 144 34 133 145
9 10 1 19 66 18 22 146 135 147
9 66 19 20 67 146 23 148 138 149
9 67 20 21 68 148 24 150 141 151
9 68 21 2 26 150 25 33 144 152

CELL_TYPES 56
21
21
21
21
21
21
21
21
21
21
21
21
21
21
21
21
21
21
21
21
21
21
21
21
28
28
28
28
28
28
28
28
28
28
28
28
28
28
28
28
28
28
28
28
28
28
28
28
28
28
28
28
28
28
28
28

CELL_DATA 56
SCALARS CellEntityIds int 1
LOOKUP_TABLE default
2
2
2
2
2
2
2
2
2
2
2
2
1
1
1
1
1
1
1
1
2
2
2
2
1
1
1
1
1
1
1
1
1
1
1
1
1
1
1
1
1
1
1
1
1
1
1
1
1
1
1
1
1
1
1
1
