# vtk DataFile Version 2.0
domain, Created by Gmsh 4.14.0 
ASCII
DATASET UNSTRUCTURED_GRID
POINTS 153 double
0 0 0
1 0 0
1 0.5 0
0 0.5 0
0.0625 0 0
0.125 0 0
0.1875 0 0
0.25 0 0
0.3125 0 0
0.375 0 0
0.4375 0 0
0.5 0 0
0.5625 0 0
0.625 0 0
0.6875 0 0
0.75 0 0
0.8125 0 0
0.875 0 0
0.9375 0 0
1 0.0625 0
1 0.125 0
1 0.1875 0
1 0.25 0
1 0.3125 0
1 0.375 0
1 0.4375 0
0.9375 0.5 0
0.875 0.5 0
0.8125 0.5 0
0.75 0.5 0
0.6875 0.5 0
0.625 0.5 0
0.5625 0.5 0
0.5 0.5 0
0.4375 0.5 0
0.375 0.5 0
0.3125 0.5 0
0.25 0.5 0
0.1875 0.5 0
0.125 0.5 0
0.0625 0.5 0
0 0.4375 0
0 0.375 0
0 0.3125 0
0 0.25 0
0 0.1875 0
0 0.125 0
0 0.0625 0
0.0625 0.0625 0
0.0625 0.125 0
0.0625 0.1875 0
0.0625 0.25 0
0.0625 0.3125 0
0.0625 0.375 0
0.0625 0.4375 0
0.125 0.0625 0
0.125 0.125 0
0.125 0.1875 0
0.125 0.25 0
0.125 0.3125 0
0.125 0.375 0
0.125 0.4375 0
0.1875 0.0625 0
0.1875 0.125 0
0.1875 0.1875 0
0.1875 0.25 0
0.1875 0.3125 0
0.1875 0.375 0
0.1875 0.4375 0
0.25 0.0625 0
0.25 0.125 0
0.25 0.1875 0
0.25 0.25 0
0.25 0.3125 0
0.25 0.375 0
0.25 0.4375 0
0.3125 0.0625 0
0.3125 0.125 0
0.3125 0.1875 0
0.3125 0.25 0
0.3125 0.3125 0
0.3125 0.375 0
0.3125 0.4375 0
0.375 0.0625 0
0.375 0.125 0
0.375 0.1875 0
0.375 0.25 0
0.375 0.3125 0
0.375 0.375 0
0.375 0.4375 0
0.4375 0.0625 0
0.4375 0.125 0
0.4375 0.1875 0
0.4375 0.25 0
0.4375 0.3125 0
0.4375 0.375 0
0.4375 0.4375 0
0.5 0.0625 0
0.5 0.125 0
0.5 0.1875 0
0.5 0.25 0
0.5 0.3125 0
0.5 0.375 0
0.5 0.4375 0
0.5625 0.0625 0
0.5625 0.125 0
0.5625 0.1875 0
0.5625 0.25 0
0.5625 0.3125 0
0.5625 0.375 0
0.5625 0.4375 0
0.625 0.0625 0
0.625 0.125 0
0.625 0.1875 0
0.625 0.25 0
0.625 0.3125 0
0.625 0.375 0
0.625 0.4375 0
0.6875 0.0625 0
0.6875 0.125 0
0.6875 0.1875 0
0.6875 0.25 0
0.6875 0.3125 0
0.6875 0.375 0
0.6875 0.4375 0
0.75 0.0625 0
0.75 0.125 0
0.75 0.1875 0
0.75 0.25 0
0.75 0.3125 0
0.75 0.375 0
0.75 0.4375 0
0.8125 0.0625 0
0.8125 0.125 0
0.8125 0.1875 0
0.8125 0.25 0
0.8125 0.3125 0
0.8125 0.375 0
0.8125 0.4375 0
0.875 0.0625 0
0.875 0.125 0
0.875 0.1875 0
0.875 0.25 0
0.875 0.3125 0
0.875 0.375 0
0.875 0.4375 0
0.9375 0.0625 0
0.9375 0.125 0
0.9375 0.1875 0
0.9375 0.25 0
0.9375 0.3125 0
0.9375 0.375 0
0.9375 0.4375 0

CELLS 176 784
2 0 4
2 4 5
2 5 6
2 6 7
2 7 8
2 8 9
2 9 10
2 10 11
2 11 12
2 12 13
2 13 14
2 14 15
2 15 16
2 16 17
2 17 18
2 18 1
2 1 19
2 19 20
2 20 21
2 21 22
2 22 23
2 23 24
2 24 25
2 25 2
2 2 26
2 26 27
2 27 28
2 28 29
2 29 30
2 30 31
2 31 32
2 32 33
2 33 34
2 34 35
2 35 36
2 36 37
2 37 38
2 38 39
2 39 40
2 40 3
2 3 41
2 41 42
2 42 43
2 43 44
2 44 45
2 45 46
2 46 47
2 47 0
4 0 4 48 47
4 47 48 49 46
4 46 49 50 45
4 45 50 51 44
4 44 51 52 43
4 43 52 53 42
4 42 53 54 41
4 41 54 40 3
4 4 5 55 48
4 48 55 56 49
4 49 56 57 50
4 50 57 58 51
4 51 58 59 52
4 52 59 60 53
4 53 60 61 54
4 54 61 39 40
4 5 6 62 55
4 55 62 63 56
4 56 63 64 57
4 57 64 65 58
4 58 65 66 59
4 59 66 67 60
4 60 67 68 61
4 61 68 38 39
4 6 7 69 62
4 62 69 70 63
4 63 70 71 64
4 64 71 72 65
4 65 72 73 66
4 66 73 74 67
4 67 74 75 68
4 68 75 37 38
4 7 8 76 69
4 69 76 77 70
4 70 77 78 71
4 71 78 79 72
4 72 79 80 73
4 73 80 81 74
4 74 81 82 75
4 75 82 36 37
4 8 9 83 76
4 76 83 84 77
4 77 84 85 78
4 78 85 86 79
4 79 86 87 80
4 80 87 88 81
4 81 88 89 82
4 82 89 35 36
4 9 10 90 83
4 83 90 91 84
4 84 91 92 85
4 85 92 93 86
4 86 93 94 87
4 87 94 95 88
4 88 95 96 89
4 89 96 34 35
4 10 11 97 90
4 90 97 98 91
4 91 98 99 92
4 92 99 100 93
4 93 100 101 94
4 94 101 102 95
4 95 102 103 96
4 96 103 33 34
4 11 12 104 97
4 97 104 105 98
4 98 105 106 99
4 99 106 107 100
4 100 107 108 101
4 101 108 109 102
4 102 109 110 103
4 103 110 32 33
4 12 13 111 104
4 104 111 112 105
4 105 112 113 106
4 106 113 114 107
4 107 114 115 108
4 108 115 116 109
4 109 116 117 110
4 110 117 31 32
4 13 14 118 111
4 111 118 119 112
4 112 119 120 113
4 113 120 121 114
4 114 121 122 115
4 115 122 123 116
4 116 123 124 117
4 117 124 30 31
4 14 15 125 118
4 118 125 126 119
4 119 126 127 120
4 120 127 128 121
4 121 128 129 122
4 122 129 130 123
4 123 130 131 124
4 124 131 29 30
4 15 16 132 125
4 125 132 133 126
4 126 133 134 127
4 127 134 135 128
4 128 135 136 129
4 129 136 137 130
4 130 137 138 131
4 131 138 28 29
4 16 17 139 132
4 132 139 140 133
4 133 140 141 134
4 134 141 142 135
4 135 142 143 136
4 136 143 144 137
4 137 144 145 138
4 138 145 27 28
4 17 18 146 139
4 139 146 147 140
4 140 147 148 141
4 141 148 149 142
4 142 149 150 143
4 143 150 151 144
4 144 151 152 145
4 145 152 26 27
4 18 1 19 146
4 146 19 20 147
4 147 20 21 148
4 148 21 22 149
4 149 22 23 150
4 150 23 24 151
4 151 24 25 152
4 152 25 2 26

CELL_TYPES 176
3
3
3
3
3
3
3
3
3
3
3
3
3
3
3
3
3
3
3
3
3
3
3
3
3
3
3
3
3
3
3
3
3
3
3
3
3
3
3
3
3
3
3
3
3
3
3
3
9
9
9
9
9
9
9
9
9
9
9
9
9
9
9
9
9
9
9
9
9
9
9
9
9
9
9
9
9
9
9
9
9
9
9
9
9
9
9
9
9
9
9
9
9
9
9
9
9
9
9
9
9
9
9
9
9
9
9
9
9
9
9
9
9
9
9
9
9
9
9
9
9
9
9
9
9
9
9
9
9
9
9
9
9
9
9
9
9
9
9
9
9
9
9
9
9
9
9
9
9
9
9
9
9
9
9
9
9
9
9
9
9
9
9
9
9
9
9
9
9
9
9
9
9
9
9
9

CELL_DATA 176
SCALARS CellEntityIds int 1
LOOKUP_TABLE default
2
2
2
2
2
2
2
2
2
2
2
2
2
2
2
2
2
2
2
2
2
2
2
2
1
1
1
1
1
1
1
1
1
1
1
1
1
1
1
1
2
2
2
2
2
2
2
2
1
1
1
1
1
1
1
1
1
1
1
1
1
1
1
1
1
1
1
1
1
1
1
1
1
1
1
1
1
1
1
1
1
1
1
1
1
1
1
1
1
1
1
1
1
1
1
1
1
1
1
1
1
1
1
1
1
1
1
1
1
1
1
1
1
1
1
1
1
1
1
1
1
1
1
1
1
1
1
1
1
1
1
1
1
1
1
1
1
1
1
1
1
1
1
1
1
1
1
1
1
1
1
1
1
1
1
1
1
1
1
1
1
1
1
1
1
1
1
1
1
1
1
1
1
1
1
1
