# vtk DataFile Version 2.0
domain, Created by Gmsh 4.14.0 
ASCII
DATASET UNSTRUCTURED_GRID
POINTS 45 double
0 0 0
1 0 0
1 0.5 0
0 0.5 0
0.25 0 0
0.5 0 0
0.75 0 0
0.125 0 0
0.375 0 0
0.625 0 0
0.875 0 0
1 0.25 0
1 0.125 0
1 0.375 0
0.75 0.5 0
0.5 0.5 0
0.25 0.5 0
0.875 0.5 0
0.625 0.5 0
0.375 0.5 0
0.125 0.5 0
0 0.25 0
0 0.375 0
0 0.125 0
0.25 0.25 0
0.5 0.25 0
0.75 0.25 0
0.25 0.125 0
0.125 0.25 0
0.125 0.125 0
0.25 0.375 0
0.125 0.375 0
0.5 0.125 0
0.375 0.25 0
0.375 0.125 0
0.5 0.375 0
0.375 0.375 0
0.75 0.125 0
0.625 0.25 0
0.625 0.125 0
0.75 0.375 0
0.625 0.375 0
0.875 0.25 0
0.875 0.125 0
0.875 0.375 0

CELLS 20 128
3 0 4 7
3 4 5 8
3 5 6 9
3 6 1 10
3 1 11 12
3 11 2 13
3 2 14 17
3 14 15 18
3 15 16 19
3 16 3 20
3 3 21 22
3 21 0 23
9 0 4 24 21 7 27 28 23 29
9 21 24 16 3 28 30 20 22 31
9 4 5 25 24 8 32 33 27 34
9 24 25 15 16 33 35 19 30 36
9 5 6 26 25 9 37 38 32 39
9 25 26 14 15 38 40 18 35 41
9 6 1 11 26 10 12 42 37 43
9 26 11 2 14 42 13 17 40 44

CELL_TYPES 20
21
21
21
21
21
21
21
21
21
21
21
21
28
28
28
28
28
28
28
28

CELL_DATA 20
SCALARS CellEntityIds int 1
LOOKUP_TABLE default
2
2
2
2
2
2
1
1
1
1
2
2
1
1
1
1
1
1
1
1
