# vtk DataFile Version 2.0
domain, Created by Gmsh 4.14.0 
ASCII
DATASET UNSTRUCTURED_GRID
POINTS 15 double
0 0 0
1 0 0
1 0.5 0
0 0.5 0
0.25 0 0
0.5 0 0
0.75 0 0
1 0.25 0
0.75 0.5 0
0.5 0.5 0
0.25 0.5 0
0 0.25 0
0.25 0.25 0
0.5 0.25 0
0.75 0.25 0

CELLS 28 100
2 0 4
2 4 5
2 5 6
2 6 1
2 1 7
2 7 2
2 2 8
2 8 9
2 9 10
2 10 3
2 3 11
2 11 0
3 0 4 11
3 11 4 12
3 11 12 3
3 3 12 10
3 4 5 12
3 12 5 13
3 12 13 10
3 10 13 9
3 5 6 13
3 13 6 14
3 13 14 9
3 9 14 8
3 6 1 14
3 14 1 7
3 14 7 8
3 8 7 2

CELL_TYPES 28
3
3
3
3
3
3
3
3
3
3
3
3
5
5
5
5
5
5
5
5
5
5
5
5
5
5
5
5

CELL_DATA 28
SCALARS CellEntityIds int 1
LOOKUP_TABLE default
2
2
2
2
2
2
1
1
1
1
2
2
1
1
1
1
1
1
1
1
1
1
1
1
1
1
1
1
