# vtk DataFile Version 2.0
domain, Created by Gmsh 4.14.0 
ASCII
DATASET UNSTRUCTURED_GRID
POINTS 15 double
0 0 0
1 0 0
1 0.5 0
0 0.5 0
0.25 0 0
0.5 0 0
0.75 0 0
1 0.25 0
0.75 0.5 0
0.5 0.5 0
0.25 0.5 0
0 0.25 0
0.25 0.25 0
0.5 0.25 0
0.75 0.25 0

CELLS 20 76
2 0 4
2 4 5
2 5 6
2 6 1
2 1 7
2 7 2
2 2 8
2 8 9
2 9 10
2 10 3
2 3 11
2 11 0
4 0 4 12 11
4 11 12 10 3
4 4 5 13 12
4 12 13 9 10
4 5 6 14 13
4 13 14 8 9
4 6 1 7 14
4 14 7 2 8

CELL_TYPES 20
3
3
3
3
3
3
3
3
3
3
3
3
9
9
9
9
9
9
9
9

CELL_DATA 20
SCALARS CellEntityIds int 1
LOOKUP_TABLE default
2
2
2
2
2
2
1
1
1
1
2
2
1
1
1
1
1
1
1
1
