# vtk DataFile Version 2.0
domain, Created by Gmsh 4.14.0 
ASCII
DATASET UNSTRUCTURED_GRID
POINTS 45 double
0 0 0
1 0 0
1 0.5 0
0 0.5 0
0.125 0 0
0.25 0 0
0.375 0 0
0.5 0 0
0.625 0 0
0.75 0 0
0.875 0 0
1 0.125 0
1 0.25 0
1 0.375 0
0.875 0.5 0
0.75 0.5 0
0.625 0.5 0
0.5 0.5 0
0.375 0.5 0
0.25 0.5 0
0.125 0.5 0
0 0.375 0
0 0.25 0
0 0.125 0
0.125 0.125 0
0.125 0.25 0
0.125 0.375 0
0.25 0.125 0
0.25 0.25 0
0.25 0.375 0
0.375 0.125 0
0.375 0.25 0
0.375 0.375 0
0.5 0.125 0
0.5 0.25 0
0.5 0.375 0
0.625 0.125 0
0.625 0.25 0
0.625 0.375 0
0.75 0.125 0
0.75 0.25 0
0.75 0.375 0
0.875 0.125 0
0.875 0.25 0
0.875 0.375 0

CELLS 88 328
2 0 4
2 4 5
2 5 6
2 6 7
2 7 8
2 8 9
2 9 10
2 10 1
2 1 11
2 11 12
2 12 13
2 13 2
2 2 14
2 14 15
2 15 16
2 16 17
2 17 18
2 18 19
2 19 20
2 20 3
2 3 21
2 21 22
2 22 23
2 23 0
3 0 4 23
3 23 4 24
3 23 24 22
3 22 24 25
3 22 25 21
3 21 25 26
3 21 26 3
3 3 26 20
3 4 5 24
3 24 5 27
3 24 27 25
3 25 27 28
3 25 28 26
3 26 28 29
3 26 29 20
3 20 29 19
3 5 6 27
3 27 6 30
3 27 30 28
3 28 30 31
3 28 31 29
3 29 31 32
3 29 32 19
3 19 32 18
3 6 7 30
3 30 7 33
3 30 33 31
3 31 33 34
3 31 34 32
3 32 34 35
3 32 35 18
3 18 35 17
3 7 8 33
3 33 8 36
3 33 36 34
3 34 36 37
3 34 37 35
3 35 37 38
3 35 38 17
3 17 38 16
3 8 9 36
3 36 9 39
3 36 39 37
3 37 39 40
3 37 40 38
3 38 40 41
3 38 41 16
3 16 41 15
3 9 10 39
3 39 10 42
3 39 42 40
3 40 42 43
3 40 43 41
3 41 43 44
3 41 44 15
3 15 44 14
3 10 1 42
3 42 1 11
3 42 11 43
3 43 11 12
3 43 12 44
3 44 12 13
3 44 13 14
3 14 13 2

CELL_TYPES 88
3
3
3
3
3
3
3
3
3
3
3
3
3
3
3
3
3
3
3
3
3
3
3
3
5
5
5
5
5
5
5
5
5
5
5
5
5
5
5
5
5
5
5
5
5
5
5
5
5
5
5
5
5
5
5
5
5
5
5
5
5
5
5
5
5
5
5
5
5
5
5
5
5
5
5
5
5
5
5
5
5
5
5
5
5
5
5
5

CELL_DATA 88
SCALARS CellEntityIds int 1
LOOKUP_TABLE default
2
2
2
2
2
2
2
2
2
2
2
2
1
1
1
1
1
1
1
1
2
2
2
2
1
1
1
1
1
1
1
1
1
1
1
1
1
1
1
1
1
1
1
1
1
1
1
1
1
1
1
1
1
1
1
1
1
1
1
1
1
1
1
1
1
1
1
1
1
1
1
1
1
1
1
1
1
1
1
1
1
1
1
1
1
1
1
1
