# vtk DataFile Version 2.0
domain, Created by Gmsh 4.14.0 
ASCII
DATASET UNSTRUCTURED_GRID
POINTS 24 double
0 0 0
1 0 0
1 0.5 0
0 0.5 0
0.2 0 0
0.4 0 0
0.6000000000000001 0 0
0.8 0 0
1 0.1666666666666667 0
1 0.3333333333333333 0
0.8 0.5 0
0.6 0.5 0
0.3999999999999999 0.5 0
0.2 0.5 0
0 0.3333333333333334 0
0 0.1666666666666667 0
0.2000000000000001 0.1666666666666667 0
0.2 0.3333333333333334 0
0.4 0.1666666666666667 0
0.3999999999999999 0.3333333333333334 0
0.6000000000000001 0.1666666666666667 0
0.6000000000000001 0.3333333333333333 0
0.7999999999999999 0.1666666666666667 0
0.8 0.3333333333333333 0

CELLS 46 168
2 0 4
2 4 5
2 5 6
2 6 7
2 7 1
2 1 8
2 8 9
2 9 2
2 2 10
2 10 11
2 11 12
2 12 13
2 13 3
2 3 14
2 14 15
2 15 0
3 0 4 15
3 15 4 16
3 15 16 14
3 14 16 17
3 14 17 3
3 3 17 13
3 4 5 16
3 16 5 18
3 16 18 17
3 17 18 19
3 17 19 13
3 13 19 12
3 5 6 18
3 18 6 20
3 18 20 19
3 19 20 21
3 19 21 12
3 12 21 11
3 6 7 20
3 20 7 22
3 20 22 21
3 21 22 23
3 21 23 11
3 11 23 10
3 7 1 22
3 22 1 8
3 22 8 23
3 23 8 9
3 23 9 10
3 10 9 2

CELL_TYPES 46
3
3
3
3
3
3
3
3
3
3
3
3
3
3
3
3
5
5
5
5
5
5
5
5
5
5
5
5
5
5
5
5
5
5
5
5
5
5
5
5
5
5
5
5
5
5

CELL_DATA 46
SCALARS CellEntityIds int 1
LOOKUP_TABLE default
2
2
2
2
2
2
2
2
1
1
1
1
1
2
2
2
1
1
1
1
1
1
1
1
1
1
1
1
1
1
1
1
1
1
1
1
1
1
1
1
1
1
1
1
1
1
