# vtk DataFile Version 2.0
domain, Created by Gmsh 4.14.0 
ASCII
DATASET UNSTRUCTURED_GRID
POINTS 28 double
0 0.5 0
1 0.5 0
1 1 0
0 1 0
0.1666666666666667 0.5 0
0.3333333333333333 0.5 0
0.5 0.5 0
0.6666666666666666 0.5 0
0.8333333333333333 0.5 0
1 0.6666666666666666 0
1 0.8333333333333333 0
0.8333333333333334 1 0
0.6666666666666667 1 0
0.5 1 0
0.3333333333333334 1 0
0.1666666666666667 1 0
0 0.8333333333333334 0
0 0.6666666666666667 0
0.1666666666666667 0.6666666666666667 0
0.1666666666666667 0.8333333333333334 0
0.3333333333333334 0.6666666666666666 0
0.3333333333333334 0.8333333333333334 0
0.5 0.6666666666666666 0
0.5 0.8333333333333333 0
0.6666666666666666 0.6666666666666666 0
0.6666666666666667 0.8333333333333333 0
0.8333333333333334 0.6666666666666666 0
0.8333333333333333 0.8333333333333333 0

CELLS 54 198
2 0 4
2 4 5
2 5 6
2 6 7
2 7 8
2 8 1
2 1 9
2 9 10
2 10 2
2 2 11
2 11 12
2 12 13
2 13 14
2 14 15
2 15 3
2 3 16
2 16 17
2 17 0
3 0 4 17
3 17 4 18
3 17 18 16
3 16 18 19
3 16 19 3
3 3 19 15
3 4 5 18
3 18 5 20
3 18 20 19
3 19 20 21
3 19 21 15
3 15 21 14
3 5 6 20
3 20 6 22
3 20 22 21
3 21 22 23
3 21 23 14
3 14 23 13
3 6 7 22
3 22 7 24
3 22 24 23
3 23 24 25
3 23 25 13
3 13 25 12
3 7 8 24
3 24 8 26
3 24 26 25
3 25 26 27
3 25 27 12
3 12 27 11
3 8 1 26
3 26 1 9
3 26 9 27
3 27 9 10
3 27 10 11
3 11 10 2

CELL_TYPES 54
3
3
3
3
3
3
3
3
3
3
3
3
3
3
3
3
3
3
5
5
5
5
5
5
5
5
5
5
5
5
5
5
5
5
5
5
5
5
5
5
5
5
5
5
5
5
5
5
5
5
5
5
5
5

CELL_DATA 54
SCALARS CellEntityIds int 1
LOOKUP_TABLE default
1
1
1
1
1
1
2
2
2
2
2
2
2
2
2
2
2
2
1
1
1
1
1
1
1
1
1
1
1
1
1
1
1
1
1
1
1
1
1
1
1
1
1
1
1
1
1
1
1
1
1
1
1
1
