# vtk DataFile Version 2.0
domain, Created by Gmsh 4.14.0 
ASCII
DATASET UNSTRUCTURED_GRID
POINTS 91 double
0 0.5 0
1 0.5 0
1 1 0
0 1 0
0.08333333333333333 0.5 0
0.1666666666666667 0.5 0
0.25 0.5 0
0.3333333333333333 0.5 0
0.4166666666666666 0.5 0
0.5 0.5 0
0.5833333333333333 0.5 0
0.6666666666666666 0.5 0
0.75 0.5 0
0.8333333333333333 0.5 0
0.9166666666666666 0.5 0
1 0.5833333333333334 0
1 0.6666666666666666 0
1 0.75 0
1 0.8333333333333333 0
1 0.9166666666666666 0
0.9166666666666666 1 0
0.8333333333333334 1 0
0.75 1 0
0.6666666666666667 1 0
0.5833333333333334 1 0
0.5 1 0
0.4166666666666667 1 0
0.3333333333333334 1 0
0.25 1 0
0.1666666666666667 1 0
0.08333333333333337 1 0
0 0.9166666666666666 0
0 0.8333333333333334 0
0 0.75 0
0 0.6666666666666667 0
0 0.5833333333333334 0
0.08333333333333337 0.5833333333333334 0
0.08333333333333337 0.6666666666666667 0
0.08333333333333337 0.75 0
0.08333333333333337 0.8333333333333334 0
0.08333333333333343 0.9166666666666667 0
0.1666666666666666 0.5833333333333334 0
0.1666666666666667 0.6666666666666667 0
0.1666666666666667 0.75 0
0.1666666666666667 0.8333333333333334 0
0.1666666666666667 0.9166666666666667 0
0.2500000000000001 0.5833333333333333 0
0.25 0.6666666666666667 0
0.25 0.75 0
0.25 0.8333333333333333 0
0.2500000000000001 0.9166666666666666 0
0.3333333333333333 0.5833333333333334 0
0.3333333333333333 0.6666666666666666 0
0.3333333333333334 0.75 0
0.3333333333333334 0.8333333333333334 0
0.3333333333333334 0.9166666666666666 0
0.4166666666666666 0.5833333333333333 0
0.4166666666666667 0.6666666666666667 0
0.4166666666666667 0.75 0
0.4166666666666667 0.8333333333333334 0
0.4166666666666667 0.9166666666666667 0
0.5 0.5833333333333333 0
0.5 0.6666666666666666 0
0.5 0.75 0
0.5 0.8333333333333333 0
0.5 0.9166666666666666 0
0.5833333333333333 0.5833333333333333 0
0.5833333333333333 0.6666666666666666 0
0.5833333333333333 0.75 0
0.5833333333333334 0.8333333333333333 0
0.5833333333333334 0.9166666666666666 0
0.6666666666666666 0.5833333333333333 0
0.6666666666666666 0.6666666666666666 0
0.6666666666666666 0.75 0
0.6666666666666667 0.8333333333333333 0
0.6666666666666667 0.9166666666666666 0
0.75 0.5833333333333333 0
0.75 0.6666666666666666 0
0.75 0.75 0
0.75 0.8333333333333334 0
0.75 0.9166666666666666 0
0.8333333333333333 0.5833333333333333 0
0.8333333333333334 0.6666666666666666 0
0.8333333333333334 0.75 0
0.8333333333333333 0.8333333333333333 0
0.8333333333333334 0.9166666666666666 0
0.9166666666666665 0.5833333333333333 0
0.9166666666666667 0.6666666666666666 0
0.9166666666666667 0.75 0
0.9166666666666667 0.8333333333333333 0
0.9166666666666666 0.9166666666666666 0

CELLS 108 468
2 0 4
2 4 5
2 5 6
2 6 7
2 7 8
2 8 9
2 9 10
2 10 11
2 11 12
2 12 13
2 13 14
2 14 1
2 1 15
2 15 16
2 16 17
2 17 18
2 18 19
2 19 2
2 2 20
2 20 21
2 21 22
2 22 23
2 23 24
2 24 25
2 25 26
2 26 27
2 27 28
2 28 29
2 29 30
2 30 3
2 3 31
2 31 32
2 32 33
2 33 34
2 34 35
2 35 0
4 0 4 36 35
4 35 36 37 34
4 34 37 38 33
4 33 38 39 32
4 32 39 40 31
4 31 40 30 3
4 4 5 41 36
4 36 41 42 37
4 37 42 43 38
4 38 43 44 39
4 39 44 45 40
4 40 45 29 30
4 5 6 46 41
4 41 46 47 42
4 42 47 48 43
4 43 48 49 44
4 44 49 50 45
4 45 50 28 29
4 6 7 51 46
4 46 51 52 47
4 47 52 53 48
4 48 53 54 49
4 49 54 55 50
4 50 55 27 28
4 7 8 56 51
4 51 56 57 52
4 52 57 58 53
4 53 58 59 54
4 54 59 60 55
4 55 60 26 27
4 8 9 61 56
4 56 61 62 57
4 57 62 63 58
4 58 63 64 59
4 59 64 65 60
4 60 65 25 26
4 9 10 66 61
4 61 66 67 62
4 62 67 68 63
4 63 68 69 64
4 64 69 70 65
4 65 70 24 25
4 10 11 71 66
4 66 71 72 67
4 67 72 73 68
4 68 73 74 69
4 69 74 75 70
4 70 75 23 24
4 11 12 76 71
4 71 76 77 72
4 72 77 78 73
4 73 78 79 74
4 74 79 80 75
4 75 80 22 23
4 12 13 81 76
4 76 81 82 77
4 77 82 83 78
4 78 83 84 79
4 79 84 85 80
4 80 85 21 22
4 13 14 86 81
4 81 86 87 82
4 82 87 88 83
4 83 88 89 84
4 84 89 90 85
4 85 90 20 21
4 14 1 15 86
4 86 15 16 87
4 87 16 17 88
4 88 17 18 89
4 89 18 19 90
4 90 19 2 20

CELL_TYPES 108
3
3
3
3
3
3
3
3
3
3
3
3
3
3
3
3
3
3
3
3
3
3
3
3
3
3
3
3
3
3
3
3
3
3
3
3
9
9
9
9
9
9
9
9
9
9
9
9
9
9
9
9
9
9
9
9
9
9
9
9
9
9
9
9
9
9
9
9
9
9
9
9
9
9
9
9
9
9
9
9
9
9
9
9
9
9
9
9
9
9
9
9
9
9
9
9
9
9
9
9
9
9
9
9
9
9
9
9

CELL_DATA 108
SCALARS CellEntityIds int 1
LOOKUP_TABLE default
1
1
1
1
1
1
1
1
1
1
1
1
2
2
2
2
2
2
2
2
2
2
2
2
2
2
2
2
2
2
2
2
2
2
2
2
1
1
1
1
1
1
1
1
1
1
1
1
1
1
1
1
1
1
1
1
1
1
1
1
1
1
1
1
1
1
1
1
1
1
1
1
1
1
1
1
1
1
1
1
1
1
1
1
1
1
1
1
1
1
1
1
1
1
1
1
1
1
1
1
1
1
1
1
1
1
1
1
