# vtk DataFile Version 2.0
domain, Created by Gmsh 4.14.0 
ASCII
DATASET UNSTRUCTURED_GRID
POINTS 91 double
0 0.5 0
1 0.5 0
1 1 0
0 1 0
0.08333333333333333 0.5 0
0.1666666666666667 0.5 0
0.25 0.5 0
0.3333333333333333 0.5 0
0.4166666666666666 0.5 0
0.5 0.5 0
0.5833333333333333 0.5 0
0.6666666666666666 0.5 0
0.75 0.5 0
0.8333333333333333 0.5 0
0.9166666666666666 0.5 0
1 0.5833333333333334 0
1 0.6666666666666666 0
1 0.75 0
1 0.8333333333333333 0
1 0.9166666666666666 0
0.9166666666666666 1 0
0.8333333333333334 1 0
0.75 1 0
0.6666666666666667 1 0
0.5833333333333334 1 0
0.5 1 0
0.4166666666666667 1 0
0.3333333333333334 1 0
0.25 1 0
0.1666666666666667 1 0
0.08333333333333337 1 0
0 0.9166666666666666 0
0 0.8333333333333334 0
0 0.75 0
0 0.6666666666666667 0
0 0.5833333333333334 0
0.08333333333333337 0.5833333333333334 0
0.08333333333333337 0.6666666666666667 0
0.08333333333333337 0.75 0
0.08333333333333337 0.8333333333333334 0
0.08333333333333343 0.9166666666666667 0
0.1666666666666666 0.5833333333333334 0
0.1666666666666667 0.6666666666666667 0
0.1666666666666667 0.75 0
0.1666666666666667 0.8333333333333334 0
0.1666666666666667 0.9166666666666667 0
0.2500000000000001 0.5833333333333333 0
0.25 0.6666666666666667 0
0.25 0.75 0
0.25 0.8333333333333333 0
0.2500000000000001 0.9166666666666666 0
0.3333333333333333 0.5833333333333334 0
0.3333333333333333 0.6666666666666666 0
0.3333333333333334 0.75 0
0.3333333333333334 0.8333333333333334 0
0.3333333333333334 0.9166666666666666 0
0.4166666666666666 0.5833333333333333 0
0.4166666666666667 0.6666666666666667 0
0.4166666666666667 0.75 0
0.4166666666666667 0.8333333333333334 0
0.4166666666666667 0.9166666666666667 0
0.5 0.5833333333333333 0
0.5 0.6666666666666666 0
0.5 0.75 0
0.5 0.8333333333333333 0
0.5 0.9166666666666666 0
0.5833333333333333 0.5833333333333333 0
0.5833333333333333 0.6666666666666666 0
0.5833333333333333 0.75 0
0.5833333333333334 0.8333333333333333 0
0.5833333333333334 0.9166666666666666 0
0.6666666666666666 0.5833333333333333 0
0.6666666666666666 0.6666666666666666 0
0.6666666666666666 0.75 0
0.6666666666666667 0.8333333333333333 0
0.6666666666666667 0.9166666666666666 0
0.75 0.5833333333333333 0
0.75 0.6666666666666666 0
0.75 0.75 0
0.75 0.8333333333333334 0
0.75 0.9166666666666666 0
0.8333333333333333 0.5833333333333333 0
0.8333333333333334 0.6666666666666666 0
0.8333333333333334 0.75 0
0.8333333333333333 0.8333333333333333 0
0.8333333333333334 0.9166666666666666 0
0.9166666666666665 0.5833333333333333 0
0.9166666666666667 0.6666666666666666 0
0.9166666666666667 0.75 0
0.9166666666666667 0.8333333333333333 0
0.9166666666666666 0.9166666666666666 0

CELLS 180 684
2 0 4
2 4 5
2 5 6
2 6 7
2 7 8
2 8 9
2 9 10
2 10 11
2 11 12
2 12 13
2 13 14
2 14 1
2 1 15
2 15 16
2 16 17
2 17 18
2 18 19
2 19 2
2 2 20
2 20 21
2 21 22
2 22 23
2 23 24
2 24 25
2 25 26
2 26 27
2 27 28
2 28 29
2 29 30
2 30 3
2 3 31
2 31 32
2 32 33
2 33 34
2 34 35
2 35 0
3 0 4 35
3 35 4 36
3 35 36 34
3 34 36 37
3 34 37 33
3 33 37 38
3 33 38 32
3 32 38 39
3 32 39 31
3 31 39 40
3 31 40 3
3 3 40 30
3 4 5 36
3 36 5 41
3 36 41 37
3 37 41 42
3 37 42 38
3 38 42 43
3 38 43 39
3 39 43 44
3 39 44 40
3 40 44 45
3 40 45 30
3 30 45 29
3 5 6 41
3 41 6 46
3 41 46 42
3 42 46 47
3 42 47 43
3 43 47 48
3 43 48 44
3 44 48 49
3 44 49 45
3 45 49 50
3 45 50 29
3 29 50 28
3 6 7 46
3 46 7 51
3 46 51 47
3 47 51 52
3 47 52 48
3 48 52 53
3 48 53 49
3 49 53 54
3 49 54 50
3 50 54 55
3 50 55 28
3 28 55 27
3 7 8 51
3 51 8 56
3 51 56 52
3 52 56 57
3 52 57 53
3 53 57 58
3 53 58 54
3 54 58 59
3 54 59 55
3 55 59 60
3 55 60 27
3 27 60 26
3 8 9 56
3 56 9 61
3 56 61 57
3 57 61 62
3 57 62 58
3 58 62 63
3 58 63 59
3 59 63 64
3 59 64 60
3 60 64 65
3 60 65 26
3 26 65 25
3 9 10 61
3 61 10 66
3 61 66 62
3 62 66 67
3 62 67 63
3 63 67 68
3 63 68 64
3 64 68 69
3 64 69 65
3 65 69 70
3 65 70 25
3 25 70 24
3 10 11 66
3 66 11 71
3 66 71 67
3 67 71 72
3 67 72 68
3 68 72 73
3 68 73 69
3 69 73 74
3 69 74 70
3 70 74 75
3 70 75 24
3 24 75 23
3 11 12 71
3 71 12 76
3 71 76 72
3 72 76 77
3 72 77 73
3 73 77 78
3 73 78 74
3 74 78 79
3 74 79 75
3 75 79 80
3 75 80 23
3 23 80 22
3 12 13 76
3 76 13 81
3 76 81 77
3 77 81 82
3 77 82 78
3 78 82 83
3 78 83 79
3 79 83 84
3 79 84 80
3 80 84 85
3 80 85 22
3 22 85 21
3 13 14 81
3 81 14 86
3 81 86 82
3 82 86 87
3 82 87 83
3 83 87 88
3 83 88 84
3 84 88 89
3 84 89 85
3 85 89 90
3 85 90 21
3 21 90 20
3 14 1 86
3 86 1 15
3 86 15 87
3 87 15 16
3 87 16 88
3 88 16 17
3 88 17 89
3 89 17 18
3 89 18 90
3 90 18 19
3 90 19 20
3 20 19 2

CELL_TYPES 180
3
3
3
3
3
3
3
3
3
3
3
3
3
3
3
3
3
3
3
3
3
3
3
3
3
3
3
3
3
3
3
3
3
3
3
3
5
5
5
5
5
5
5
5
5
5
5
5
5
5
5
5
5
5
5
5
5
5
5
5
5
5
5
5
5
5
5
5
5
5
5
5
5
5
5
5
5
5
5
5
5
5
5
5
5
5
5
5
5
5
5
5
5
5
5
5
5
5
5
5
5
5
5
5
5
5
5
5
5
5
5
5
5
5
5
5
5
5
5
5
5
5
5
5
5
5
5
5
5
5
5
5
5
5
5
5
5
5
5
5
5
5
5
5
5
5
5
5
5
5
5
5
5
5
5
5
5
5
5
5
5
5
5
5
5
5
5
5
5
5
5
5
5
5
5
5
5
5
5
5

CELL_DATA 180
SCALARS CellEntityIds int 1
LOOKUP_TABLE default
1
1
1
1
1
1
1
1
1
1
1
1
2
2
2
2
2
2
2
2
2
2
2
2
2
2
2
2
2
2
2
2
2
2
2
2
1
1
1
1
1
1
1
1
1
1
1
1
1
1
1
1
1
1
1
1
1
1
1
1
1
1
1
1
1
1
1
1
1
1
1
1
1
1
1
1
1
1
1
1
1
1
1
1
1
1
1
1
1
1
1
1
1
1
1
1
1
1
1
1
1
1
1
1
1
1
1
1
1
1
1
1
1
1
1
1
1
1
1
1
1
1
1
1
1
1
1
1
1
1
1
1
1
1
1
1
1
1
1
1
1
1
1
1
1
1
1
1
1
1
1
1
1
1
1
1
1
1
1
1
1
1
1
1
1
1
1
1
1
1
1
1
1
1
1
1
1
1
1
1
