# vtk DataFile Version 2.0
domain, Created by Gmsh 4.14.0 
ASCII
DATASET UNSTRUCTURED_GRID
POINTS 405 double
0 0.5 0
1 0.5 0
1 1 0
0 1 0
0.07692307692307693 0.5 0
0.1538461538461539 0.5 0
0.2307692307692308 0.5 0
0.3076923076923077 0.5 0
0.3846153846153846 0.5 0
0.4615384615384616 0.5 0
0.5384615384615385 0.5 0
0.6153846153846154 0.5 0
0.6923076923076923 0.5 0
0.7692307692307693 0.5 0
0.8461538461538463 0.5 0
0.9230769230769231 0.5 0
0.03846153846153846 0.5 0
0.1153846153846154 0.5 0
0.1923076923076923 0.5 0
0.2692307692307693 0.5 0
0.3461538461538461 0.5 0
0.4230769230769231 0.5 0
0.5 0.5 0
0.576923076923077 0.5 0
0.6538461538461539 0.5 0
0.7307692307692308 0.5 0
0.8076923076923078 0.5 0
0.8846153846153847 0.5 0
0.9615384615384616 0.5 0
1 0.5714285714285714 0
1 0.6428571428571428 0
1 0.7142857142857143 0
1 0.7857142857142857 0
1 0.8571428571428571 0
1 0.9285714285714286 0
1 0.5357142857142857 0
1 0.6071428571428571 0
1 0.6785714285714286 0
1 0.75 0
1 0.8214285714285714 0
1 0.8928571428571428 0
1 0.9642857142857142 0
0.9230769230769231 1 0
0.8461538461538461 1 0
0.7692307692307692 1 0
0.6923076923076923 1 0
0.6153846153846154 1 0
0.5384615384615384 1 0
0.4615384615384615 1 0
0.3846153846153846 1 0
0.3076923076923077 1 0
0.2307692307692307 1 0
0.1538461538461537 1 0
0.07692307692307687 1 0
0.9615384615384616 1 0
0.8846153846153846 1 0
0.8076923076923077 1 0
0.7307692307692307 1 0
0.6538461538461539 1 0
0.5769230769230769 1 0
0.5 1 0
0.423076923076923 1 0
0.3461538461538461 1 0
0.2692307692307692 1 0
0.1923076923076922 1 0
0.1153846153846153 1 0
0.03846153846153844 1 0
0 0.9285714285714286 0
0 0.8571428571428572 0
0 0.7857142857142857 0
0 0.7142857142857143 0
0 0.6428571428571429 0
0 0.5714285714285714 0
0 0.9642857142857143 0
0 0.8928571428571429 0
0 0.8214285714285714 0
0 0.75 0
0 0.6785714285714286 0
0 0.6071428571428572 0
0 0.5357142857142858 0
0.07692307692307687 0.5714285714285714 0
0.07692307692307687 0.6428571428571429 0
0.07692307692307687 0.7142857142857143 0
0.07692307692307687 0.7857142857142857 0
0.07692307692307687 0.8571428571428571 0
0.07692307692307687 0.9285714285714286 0
0.1538461538461536 0.5714285714285714 0
0.1538461538461539 0.6428571428571429 0
0.1538461538461539 0.7142857142857143 0
0.1538461538461537 0.7857142857142857 0
0.1538461538461537 0.8571428571428572 0
0.1538461538461537 0.9285714285714286 0
0.2307692307692308 0.5714285714285714 0
0.2307692307692307 0.6428571428571429 0
0.2307692307692307 0.7142857142857143 0
0.2307692307692307 0.7857142857142857 0
0.2307692307692307 0.8571428571428572 0
0.2307692307692307 0.9285714285714286 0
0.3076923076923077 0.5714285714285714 0
0.3076923076923078 0.6428571428571429 0
0.3076923076923077 0.7142857142857143 0
0.3076923076923077 0.7857142857142857 0
0.3076923076923077 0.8571428571428571 0
0.3076923076923077 0.9285714285714286 0
0.3846153846153846 0.5714285714285714 0
0.3846153846153847 0.6428571428571429 0
0.3846153846153846 0.7142857142857143 0
0.3846153846153846 0.7857142857142857 0
0.3846153846153846 0.8571428571428571 0
0.3846153846153846 0.9285714285714286 0
0.4615384615384615 0.5714285714285714 0
0.4615384615384616 0.6428571428571429 0
0.4615384615384615 0.7142857142857143 0
0.4615384615384615 0.7857142857142857 0
0.4615384615384615 0.8571428571428571 0
0.4615384615384615 0.9285714285714286 0
0.5384615384615385 0.5714285714285714 0
0.5384615384615385 0.6428571428571429 0
0.5384615384615385 0.7142857142857143 0
0.5384615384615385 0.7857142857142857 0
0.5384615384615385 0.8571428571428571 0
0.5384615384615384 0.9285714285714286 0
0.6153846153846154 0.5714285714285714 0
0.6153846153846154 0.6428571428571429 0
0.6153846153846154 0.7142857142857143 0
0.6153846153846154 0.7857142857142857 0
0.6153846153846153 0.8571428571428571 0
0.6153846153846154 0.9285714285714286 0
0.6923076923076923 0.5714285714285714 0
0.6923076923076923 0.6428571428571429 0
0.6923076923076923 0.7142857142857143 0
0.6923076923076923 0.7857142857142857 0
0.6923076923076923 0.8571428571428571 0
0.6923076923076923 0.9285714285714286 0
0.7692307692307693 0.5714285714285714 0
0.7692307692307693 0.6428571428571429 0
0.7692307692307693 0.7142857142857143 0
0.7692307692307693 0.7857142857142857 0
0.7692307692307692 0.8571428571428571 0
0.7692307692307692 0.9285714285714286 0
0.8461538461538463 0.5714285714285714 0
0.8461538461538463 0.6428571428571429 0
0.8461538461538463 0.7142857142857143 0
0.8461538461538461 0.7857142857142857 0
0.8461538461538463 0.8571428571428571 0
0.846153846153846 0.9285714285714286 0
0.9230769230769231 0.5714285714285714 0
0.9230769230769231 0.6428571428571429 0
0.9230769230769231 0.7142857142857143 0
0.9230769230769231 0.7857142857142857 0
0.9230769230769231 0.8571428571428571 0
0.9230769230769231 0.9285714285714286 0
0.07692307692307687 0.5357142857142857 0
0.03846153846153844 0.5714285714285714 0
0.03846153846153844 0.5357142857142858 0
0.07692307692307687 0.6071428571428572 0
0.03846153846153844 0.6428571428571429 0
0.03846153846153844 0.6071428571428572 0
0.07692307692307687 0.6785714285714286 0
0.03846153846153844 0.7142857142857143 0
0.03846153846153844 0.6785714285714286 0
0.07692307692307687 0.75 0
0.03846153846153844 0.7857142857142857 0
0.03846153846153844 0.75 0
0.07692307692307687 0.8214285714285714 0
0.03846153846153844 0.8571428571428572 0
0.03846153846153844 0.8214285714285714 0
0.07692307692307687 0.8928571428571429 0
0.03846153846153844 0.9285714285714286 0
0.03846153846153844 0.8928571428571428 0
0.07692307692307687 0.9642857142857143 0
0.03846153846153844 0.9642857142857143 0
0.1538461538461537 0.5357142857142857 0
0.1153846153846153 0.5714285714285714 0
0.1153846153846153 0.5357142857142857 0
0.1538461538461537 0.6071428571428572 0
0.1153846153846154 0.6428571428571429 0
0.1153846153846153 0.6071428571428572 0
0.1538461538461539 0.6785714285714286 0
0.1153846153846154 0.7142857142857143 0
0.1153846153846154 0.6785714285714286 0
0.1538461538461538 0.75 0
0.1153846153846153 0.7857142857142857 0
0.1153846153846153 0.75 0
0.1538461538461537 0.8214285714285714 0
0.1153846153846153 0.8571428571428572 0
0.1153846153846153 0.8214285714285714 0
0.1538461538461537 0.8928571428571429 0
0.1153846153846153 0.9285714285714286 0
0.1153846153846153 0.8928571428571429 0
0.1538461538461537 0.9642857142857143 0
0.1153846153846153 0.9642857142857143 0
0.2307692307692308 0.5357142857142857 0
0.1923076923076922 0.5714285714285714 0
0.1923076923076923 0.5357142857142858 0
0.2307692307692308 0.6071428571428572 0
0.1923076923076923 0.6428571428571429 0
0.1923076923076922 0.6071428571428572 0
0.2307692307692307 0.6785714285714286 0
0.1923076923076923 0.7142857142857143 0
0.1923076923076923 0.6785714285714286 0
0.2307692307692307 0.75 0
0.1923076923076922 0.7857142857142857 0
0.1923076923076922 0.75 0
0.2307692307692307 0.8214285714285714 0
0.1923076923076922 0.8571428571428572 0
0.1923076923076922 0.8214285714285714 0
0.2307692307692307 0.8928571428571429 0
0.1923076923076922 0.9285714285714286 0
0.1923076923076922 0.8928571428571429 0
0.2307692307692307 0.9642857142857143 0
0.1923076923076922 0.9642857142857143 0
0.3076923076923077 0.5357142857142857 0
0.2692307692307693 0.5714285714285714 0
0.2692307692307693 0.5357142857142858 0
0.3076923076923077 0.6071428571428572 0
0.2692307692307693 0.6428571428571429 0
0.2692307692307693 0.6071428571428572 0
0.3076923076923077 0.6785714285714286 0
0.2692307692307692 0.7142857142857143 0
0.2692307692307692 0.6785714285714286 0
0.3076923076923077 0.75 0
0.2692307692307692 0.7857142857142857 0
0.2692307692307692 0.75 0
0.3076923076923077 0.8214285714285714 0
0.2692307692307692 0.8571428571428571 0
0.2692307692307692 0.8214285714285714 0
0.3076923076923077 0.8928571428571428 0
0.2692307692307692 0.9285714285714286 0
0.2692307692307692 0.8928571428571428 0
0.3076923076923077 0.9642857142857143 0
0.2692307692307692 0.9642857142857143 0
0.3846153846153846 0.5357142857142857 0
0.3461538461538461 0.5714285714285714 0
0.3461538461538461 0.5357142857142858 0
0.3846153846153846 0.6071428571428572 0
0.3461538461538462 0.6428571428571429 0
0.3461538461538461 0.6071428571428572 0
0.3846153846153846 0.6785714285714286 0
0.3461538461538461 0.7142857142857143 0
0.3461538461538462 0.6785714285714286 0
0.3846153846153846 0.75 0
0.3461538461538461 0.7857142857142857 0
0.3461538461538461 0.75 0
0.3846153846153846 0.8214285714285714 0
0.3461538461538461 0.8571428571428571 0
0.3461538461538461 0.8214285714285714 0
0.3846153846153846 0.8928571428571428 0
0.3461538461538461 0.9285714285714286 0
0.3461538461538461 0.8928571428571428 0
0.3846153846153846 0.9642857142857143 0
0.3461538461538461 0.9642857142857143 0
0.4615384615384616 0.5357142857142857 0
0.4230769230769231 0.5714285714285714 0
0.4230769230769231 0.5357142857142858 0
0.4615384615384615 0.6071428571428572 0
0.4230769230769231 0.6428571428571429 0
0.4230769230769231 0.6071428571428572 0
0.4615384615384615 0.6785714285714286 0
0.423076923076923 0.7142857142857143 0
0.4230769230769231 0.6785714285714286 0
0.4615384615384615 0.75 0
0.423076923076923 0.7857142857142857 0
0.423076923076923 0.75 0
0.4615384615384615 0.8214285714285714 0
0.423076923076923 0.8571428571428571 0
0.423076923076923 0.8214285714285714 0
0.4615384615384615 0.8928571428571428 0
0.423076923076923 0.9285714285714286 0
0.423076923076923 0.8928571428571428 0
0.4615384615384615 0.9642857142857143 0
0.423076923076923 0.9642857142857143 0
0.5384615384615385 0.5357142857142857 0
0.5 0.5714285714285714 0
0.5 0.5357142857142858 0
0.5384615384615385 0.6071428571428572 0
0.5 0.6428571428571429 0
0.5 0.6071428571428572 0
0.5384615384615385 0.6785714285714286 0
0.5 0.7142857142857143 0
0.5 0.6785714285714286 0
0.5384615384615385 0.75 0
0.5 0.7857142857142857 0
0.5 0.75 0
0.5384615384615385 0.8214285714285714 0
0.5 0.8571428571428571 0
0.5 0.8214285714285714 0
0.5384615384615384 0.8928571428571428 0
0.4999999999999999 0.9285714285714286 0
0.4999999999999999 0.8928571428571428 0
0.5384615384615384 0.9642857142857143 0
0.5 0.9642857142857143 0
0.6153846153846154 0.5357142857142857 0
0.576923076923077 0.5714285714285714 0
0.576923076923077 0.5357142857142858 0
0.6153846153846154 0.6071428571428572 0
0.576923076923077 0.6428571428571429 0
0.576923076923077 0.6071428571428572 0
0.6153846153846154 0.6785714285714286 0
0.576923076923077 0.7142857142857143 0
0.576923076923077 0.6785714285714286 0
0.6153846153846154 0.75 0
0.5769230769230769 0.7857142857142857 0
0.576923076923077 0.75 0
0.6153846153846154 0.8214285714285714 0
0.5769230769230769 0.8571428571428571 0
0.5769230769230769 0.8214285714285714 0
0.6153846153846154 0.8928571428571428 0
0.5769230769230769 0.9285714285714286 0
0.5769230769230769 0.8928571428571428 0
0.6153846153846154 0.9642857142857143 0
0.5769230769230769 0.9642857142857143 0
0.6923076923076923 0.5357142857142857 0
0.6538461538461539 0.5714285714285714 0
0.6538461538461539 0.5357142857142857 0
0.6923076923076923 0.6071428571428572 0
0.6538461538461537 0.6428571428571429 0
0.6538461538461539 0.6071428571428572 0
0.6923076923076923 0.6785714285714286 0
0.6538461538461539 0.7142857142857143 0
0.6538461538461539 0.6785714285714286 0
0.6923076923076923 0.75 0
0.6538461538461539 0.7857142857142857 0
0.6538461538461539 0.75 0
0.6923076923076923 0.8214285714285714 0
0.6538461538461537 0.8571428571428571 0
0.6538461538461537 0.8214285714285714 0
0.6923076923076923 0.8928571428571428 0
0.6538461538461539 0.9285714285714286 0
0.6538461538461539 0.8928571428571428 0
0.6923076923076923 0.9642857142857143 0
0.6538461538461539 0.9642857142857143 0
0.7692307692307693 0.5357142857142857 0
0.7307692307692308 0.5714285714285714 0
0.7307692307692308 0.5357142857142857 0
0.7692307692307693 0.6071428571428572 0
0.7307692307692307 0.6428571428571429 0
0.7307692307692308 0.6071428571428572 0
0.7692307692307693 0.6785714285714286 0
0.7307692307692308 0.7142857142857143 0
0.7307692307692308 0.6785714285714286 0
0.7692307692307693 0.75 0
0.7307692307692308 0.7857142857142857 0
0.7307692307692308 0.75 0
0.7692307692307692 0.8214285714285714 0
0.7307692307692307 0.8571428571428571 0
0.7307692307692307 0.8214285714285714 0
0.7692307692307692 0.8928571428571428 0
0.7307692307692307 0.9285714285714286 0
0.7307692307692307 0.8928571428571428 0
0.7692307692307692 0.9642857142857143 0
0.7307692307692307 0.9642857142857143 0
0.8461538461538463 0.5357142857142857 0
0.8076923076923077 0.5714285714285714 0
0.8076923076923078 0.5357142857142858 0
0.8461538461538463 0.6071428571428572 0
0.8076923076923077 0.6428571428571429 0
0.8076923076923077 0.6071428571428572 0
0.8461538461538463 0.6785714285714286 0
0.8076923076923077 0.7142857142857143 0
0.8076923076923077 0.6785714285714286 0
0.8461538461538463 0.75 0
0.8076923076923077 0.7857142857142857 0
0.8076923076923077 0.75 0
0.8461538461538461 0.8214285714285714 0
0.8076923076923077 0.8571428571428571 0
0.8076923076923077 0.8214285714285714 0
0.8461538461538461 0.8928571428571428 0
0.8076923076923076 0.9285714285714286 0
0.8076923076923077 0.8928571428571428 0
0.8461538461538461 0.9642857142857143 0
0.8076923076923077 0.9642857142857143 0
0.9230769230769231 0.5357142857142857 0
0.8846153846153847 0.5714285714285714 0
0.8846153846153847 0.5357142857142857 0
0.9230769230769231 0.6071428571428572 0
0.8846153846153847 0.6428571428571429 0
0.8846153846153847 0.6071428571428572 0
0.9230769230769231 0.6785714285714286 0
0.8846153846153847 0.7142857142857143 0
0.8846153846153847 0.6785714285714286 0
0.9230769230769231 0.75 0
0.8846153846153846 0.7857142857142857 0
0.8846153846153846 0.75 0
0.9230769230769231 0.8214285714285714 0
0.8846153846153846 0.8571428571428571 0
0.8846153846153846 0.8214285714285714 0
0.9230769230769231 0.8928571428571428 0
0.8846153846153846 0.9285714285714286 0
0.8846153846153846 0.8928571428571428 0
0.9230769230769231 0.9642857142857143 0
0.8846153846153846 0.9642857142857143 0
0.9615384615384616 0.5714285714285714 0
0.9615384615384616 0.5357142857142857 0
0.9615384615384616 0.6428571428571429 0
0.9615384615384616 0.6071428571428572 0
0.9615384615384616 0.7142857142857143 0
0.9615384615384616 0.6785714285714286 0
0.9615384615384616 0.7857142857142857 0
0.9615384615384616 0.75 0
0.9615384615384616 0.8571428571428571 0
0.9615384615384616 0.8214285714285714 0
0.9615384615384616 0.9285714285714286 0
0.9615384615384616 0.8928571428571428 0
0.9615384615384616 0.9642857142857142 0

CELLS 131 1070
3 0 4 16
3 4 5 17
3 5 6 18
3 6 7 19
3 7 8 20
3 8 9 21
3 9 10 22
3 10 11 23
3 11 12 24
3 12 13 25
3 13 14 26
3 14 15 27
3 15 1 28
3 1 29 35
3 29 30 36
3 30 31 37
3 31 32 38
3 32 33 39
3 33 34 40
3 34 2 41
3 2 42 54
3 42 43 55
3 43 44 56
3 44 45 57
3 45 46 58
3 46 47 59
3 47 48 60
3 48 49 61
3 49 50 62
3 50 51 63
3 51 52 64
3 52 53 65
3 53 3 66
3 3 67 73
3 67 68 74
3 68 69 75
3 69 70 76
3 70 71 77
3 71 72 78
3 72 0 79
9 0 4 80 72 16 152 153 79 154
9 72 80 81 71 153 155 156 78 157
9 71 81 82 70 156 158 159 77 160
9 70 82 83 69 159 161 162 76 163
9 69 83 84 68 162 164 165 75 166
9 68 84 85 67 165 167 168 74 169
9 67 85 53 3 168 170 66 73 171
9 4 5 86 80 17 172 173 152 174
9 80 86 87 81 173 175 176 155 177
9 81 87 88 82 176 178 179 158 180
9 82 88 89 83 179 181 182 161 183
9 83 89 90 84 182 184 185 164 186
9 84 90 91 85 185 187 188 167 189
9 85 91 52 53 188 190 65 170 191
9 5 6 92 86 18 192 193 172 194
9 86 92 93 87 193 195 196 175 197
9 87 93 94 88 196 198 199 178 200
9 88 94 95 89 199 201 202 181 203
9 89 95 96 90 202 204 205 184 206
9 90 96 97 91 205 207 208 187 209
9 91 97 51 52 208 210 64 190 211
9 6 7 98 92 19 212 213 192 214
9 92 98 99 93 213 215 216 195 217
9 93 99 100 94 216 218 219 198 220
9 94 100 101 95 219 221 222 201 223
9 95 101 102 96 222 224 225 204 226
9 96 102 103 97 225 227 228 207 229
9 97 103 50 51 228 230 63 210 231
9 7 8 104 98 20 232 233 212 234
9 98 104 105 99 233 235 236 215 237
9 99 105 106 100 236 238 239 218 240
9 100 106 107 101 239 241 242 221 243
9 101 107 108 102 242 244 245 224 246
9 102 108 109 103 245 247 248 227 249
9 103 109 49 50 248 250 62 230 251
9 8 9 110 104 21 252 253 232 254
9 104 110 111 105 253 255 256 235 257
9 105 111 112 106 256 258 259 238 260
9 106 112 113 107 259 261 262 241 263
9 107 113 114 108 262 264 265 244 266
9 108 114 115 109 265 267 268 247 269
9 109 115 48 49 268 270 61 250 271
9 9 10 116 110 22 272 273 252 274
9 110 116 117 111 273 275 276 255 277
9 111 117 118 112 276 278 279 258 280
9 112 118 119 113 279 281 282 261 283
9 113 119 120 114 282 284 285 264 286
9 114 120 121 115 285 287 288 267 289
9 115 121 47 48 288 290 60 270 291
9 10 11 122 116 23 292 293 272 294
9 116 122 123 117 293 295 296 275 297
9 117 123 124 118 296 298 299 278 300
9 118 124 125 119 299 301 302 281 303
9 119 125 126 120 302 304 305 284 306
9 120 126 127 121 305 307 308 287 309
9 121 127 46 47 308 310 59 290 311
9 11 12 128 122 24 312 313 292 314
9 122 128 129 123 313 315 316 295 317
9 123 129 130 124 316 318 319 298 320
9 124 130 131 125 319 321 322 301 323
9 125 131 132 126 322 324 325 304 326
9 126 132 133 127 325 327 328 307 329
9 127 133 45 46 328 330 58 310 331
9 12 13 134 128 25 332 333 312 334
9 128 134 135 129 333 335 336 315 337
9 129 135 136 130 336 338 339 318 340
9 130 136 137 131 339 341 342 321 343
9 131 137 138 132 342 344 345 324 346
9 132 138 139 133 345 347 348 327 349
9 133 139 44 45 348 350 57 330 351
9 13 14 140 134 26 352 353 332 354
9 134 140 141 135 353 355 356 335 357
9 135 141 142 136 356 358 359 338 360
9 136 142 143 137 359 361 362 341 363
9 137 143 144 138 362 364 365 344 366
9 138 144 145 139 365 367 368 347 369
9 139 145 43 44 368 370 56 350 371
9 14 15 146 140 27 372 373 352 374
9 140 146 147 141 373 375 376 355 377
9 141 147 148 142 376 378 379 358 380
9 142 148 149 143 379 381 382 361 383
9 143 149 150 144 382 384 385 364 386
9 144 150 151 145 385 387 388 367 389
9 145 151 42 43 388 390 55 370 391
9 15 1 29 146 28 35 392 372 393
9 146 29 30 147 392 36 394 375 395
9 147 30 31 148 394 37 396 378 397
9 148 31 32 149 396 38 398 381 399
9 149 32 33 150 398 39 400 384 401
9 150 33 34 151 400 40 402 387 403
9 151 34 2 42 402 41 54 390 404

CELL_TYPES 131
21
21
21
21
21
21
21
21
21
21
21
21
21
21
21
21
21
21
21
21
21
21
21
21
21
21
21
21
21
21
21
21
21
21
21
21
21
21
21
21
28
28
28
28
28
28
28
28
28
28
28
28
28
28
28
28
28
28
28
28
28
28
28
28
28
28
28
28
28
28
28
28
28
28
28
28
28
28
28
28
28
28
28
28
28
28
28
28
28
28
28
28
28
28
28
28
28
28
28
28
28
28
28
28
28
28
28
28
28
28
28
28
28
28
28
28
28
28
28
28
28
28
28
28
28
28
28
28
28
28
28

CELL_DATA 131
SCALARS CellEntityIds int 1
LOOKUP_TABLE default
1
1
1
1
1
1
1
1
1
1
1
1
1
2
2
2
2
2
2
2
2
2
2
2
2
2
2
2
2
2
2
2
2
2
2
2
2
2
2
2
1
1
1
1
1
1
1
1
1
1
1
1
1
1
1
1
1
1
1
1
1
1
1
1
1
1
1
1
1
1
1
1
1
1
1
1
1
1
1
1
1
1
1
1
1
1
1
1
1
1
1
1
1
1
1
1
1
1
1
1
1
1
1
1
1
1
1
1
1
1
1
1
1
1
1
1
1
1
1
1
1
1
1
1
1
1
1
1
1
1
1
