# vtk DataFile Version 2.0
domain, Created by Gmsh 4.14.0 
ASCII
DATASET UNSTRUCTURED_GRID
POINTS 91 double
0 0.5 0
1 0.5 0
1 1 0
0 1 0
0.1666666666666667 0.5 0
0.3333333333333333 0.5 0
0.5 0.5 0
0.6666666666666666 0.5 0
0.8333333333333333 0.5 0
0.08333333333333333 0.5 0
0.25 0.5 0
0.4166666666666666 0.5 0
0.5833333333333333 0.5 0
0.75 0.5 0
0.9166666666666666 0.5 0
1 0.6666666666666666 0
1 0.8333333333333333 0
1 0.5833333333333334 0
1 0.75 0
1 0.9166666666666666 0
0.8333333333333334 1 0
0.6666666666666667 1 0
0.5 1 0
0.3333333333333334 1 0
0.1666666666666667 1 0
0.9166666666666666 1 0
0.75 1 0
0.5833333333333334 1 0
0.4166666666666667 1 0
0.25 1 0
0.08333333333333337 1 0
0 0.8333333333333334 0
0 0.6666666666666667 0
0 0.9166666666666666 0
0 0.75 0
0 0.5833333333333334 0
0.1666666666666667 0.6666666666666667 0
0.1666666666666667 0.8333333333333334 0
0.3333333333333334 0.6666666666666666 0
0.3333333333333334 0.8333333333333334 0
0.5 0.6666666666666666 0
0.5 0.8333333333333333 0
0.6666666666666666 0.6666666666666666 0
0.6666666666666667 0.8333333333333333 0
0.8333333333333334 0.6666666666666666 0
0.8333333333333333 0.8333333333333333 0
0.1666666666666667 0.5833333333333334 0
0.08333333333333337 0.6666666666666667 0
0.08333333333333331 0.5833333333333333 0
0.1666666666666667 0.75 0
0.08333333333333337 0.8333333333333334 0
0.08333333333333337 0.75 0
0.1666666666666667 0.9166666666666667 0
0.08333333333333337 0.9166666666666667 0
0.3333333333333333 0.5833333333333334 0
0.2500000000000001 0.6666666666666667 0
0.25 0.5833333333333334 0
0.3333333333333334 0.75 0
0.2500000000000001 0.8333333333333334 0
0.2500000000000001 0.75 0
0.3333333333333334 0.9166666666666667 0
0.25 0.9166666666666667 0
0.5 0.5833333333333333 0
0.4166666666666667 0.6666666666666666 0
0.4166666666666666 0.5833333333333334 0
0.5 0.75 0
0.4166666666666667 0.8333333333333333 0
0.4166666666666667 0.75 0
0.5 0.9166666666666666 0
0.4166666666666667 0.9166666666666667 0
0.6666666666666666 0.5833333333333333 0
0.5833333333333333 0.6666666666666666 0
0.5833333333333333 0.5833333333333333 0
0.6666666666666667 0.75 0
0.5833333333333334 0.8333333333333333 0
0.5833333333333334 0.75 0
0.6666666666666667 0.9166666666666666 0
0.5833333333333334 0.9166666666666666 0
0.8333333333333333 0.5833333333333333 0
0.75 0.6666666666666666 0
0.75 0.5833333333333333 0
0.8333333333333334 0.75 0
0.75 0.8333333333333333 0
0.75 0.75 0
0.8333333333333334 0.9166666666666666 0
0.75 0.9166666666666666 0
0.9166666666666667 0.6666666666666666 0
0.9166666666666666 0.5833333333333333 0
0.9166666666666666 0.8333333333333333 0
0.9166666666666666 0.75 0
0.9166666666666667 0.9166666666666666 0

CELLS 36 252
3 0 4 9
3 4 5 10
3 5 6 11
3 6 7 12
3 7 8 13
3 8 1 14
3 1 15 17
3 15 16 18
3 16 2 19
3 2 20 25
3 20 21 26
3 21 22 27
3 22 23 28
3 23 24 29
3 24 3 30
3 3 31 33
3 31 32 34
3 32 0 35
9 0 4 36 32 9 46 47 35 48
9 32 36 37 31 47 49 50 34 51
9 31 37 24 3 50 52 30 33 53
9 4 5 38 36 10 54 55 46 56
9 36 38 39 37 55 57 58 49 59
9 37 39 23 24 58 60 29 52 61
9 5 6 40 38 11 62 63 54 64
9 38 40 41 39 63 65 66 57 67
9 39 41 22 23 66 68 28 60 69
9 6 7 42 40 12 70 71 62 72
9 40 42 43 41 71 73 74 65 75
9 41 43 21 22 74 76 27 68 77
9 7 8 44 42 13 78 79 70 80
9 42 44 45 43 79 81 82 73 83
9 43 45 20 21 82 84 26 76 85
9 8 1 15 44 14 17 86 78 87
9 44 15 16 45 86 18 88 81 89
9 45 16 2 20 88 19 25 84 90

CELL_TYPES 36
21
21
21
21
21
21
21
21
21
21
21
21
21
21
21
21
21
21
28
28
28
28
28
28
28
28
28
28
28
28
28
28
28
28
28
28

CELL_DATA 36
SCALARS CellEntityIds int 1
LOOKUP_TABLE default
1
1
1
1
1
1
2
2
2
2
2
2
2
2
2
2
2
2
1
1
1
1
1
1
1
1
1
1
1
1
1
1
1
1
1
1
