# vtk DataFile Version 2.0
domain, Created by Gmsh 4.14.0 
ASCII
DATASET UNSTRUCTURED_GRID
POINTS 28 double
0 0.5 0
1 0.5 0
1 1 0
0 1 0
0.1666666666666667 0.5 0
0.3333333333333333 0.5 0
0.5 0.5 0
0.6666666666666666 0.5 0
0.8333333333333333 0.5 0
1 0.6666666666666666 0
1 0.8333333333333333 0
0.8333333333333334 1 0
0.6666666666666667 1 0
0.5 1 0
0.3333333333333334 1 0
0.1666666666666667 1 0
0 0.8333333333333334 0
0 0.6666666666666667 0
0.1666666666666667 0.6666666666666667 0
0.1666666666666667 0.8333333333333334 0
0.3333333333333334 0.6666666666666666 0
0.3333333333333334 0.8333333333333334 0
0.5 0.6666666666666666 0
0.5 0.8333333333333333 0
0.6666666666666666 0.6666666666666666 0
0.6666666666666667 0.8333333333333333 0
0.8333333333333334 0.6666666666666666 0
0.8333333333333333 0.8333333333333333 0

CELLS 36 144
2 0 4
2 4 5
2 5 6
2 6 7
2 7 8
2 8 1
2 1 9
2 9 10
2 10 2
2 2 11
2 11 12
2 12 13
2 13 14
2 14 15
2 15 3
2 3 16
2 16 17
2 17 0
4 0 4 18 17
4 17 18 19 16
4 16 19 15 3
4 4 5 20 18
4 18 20 21 19
4 19 21 14 15
4 5 6 22 20
4 20 22 23 21
4 21 23 13 14
4 6 7 24 22
4 22 24 25 23
4 23 25 12 13
4 7 8 26 24
4 24 26 27 25
4 25 27 11 12
4 8 1 9 26
4 26 9 10 27
4 27 10 2 11

CELL_TYPES 36
3
3
3
3
3
3
3
3
3
3
3
3
3
3
3
3
3
3
9
9
9
9
9
9
9
9
9
9
9
9
9
9
9
9
9
9

CELL_DATA 36
SCALARS CellEntityIds int 1
LOOKUP_TABLE default
1
1
1
1
1
1
2
2
2
2
2
2
2
2
2
2
2
2
1
1
1
1
1
1
1
1
1
1
1
1
1
1
1
1
1
1
