# vtk DataFile Version 2.0
domain, Created by Gmsh 4.14.0 
ASCII
DATASET UNSTRUCTURED_GRID
POINTS 325 double
0 0.5 0
1 0.5 0
1 1 0
0 1 0
0.08333333333333333 0.5 0
0.1666666666666667 0.5 0
0.25 0.5 0
0.3333333333333333 0.5 0
0.4166666666666666 0.5 0
0.5 0.5 0
0.5833333333333333 0.5 0
0.6666666666666666 0.5 0
0.75 0.5 0
0.8333333333333333 0.5 0
0.9166666666666666 0.5 0
0.04166666666666666 0.5 0
0.125 0.5 0
0.2083333333333333 0.5 0
0.2916666666666666 0.5 0
0.375 0.5 0
0.4583333333333333 0.5 0
0.5416666666666666 0.5 0
0.625 0.5 0
0.7083333333333333 0.5 0
0.7916666666666666 0.5 0
0.875 0.5 0
0.9583333333333333 0.5 0
1 0.5833333333333334 0
1 0.6666666666666666 0
1 0.75 0
1 0.8333333333333333 0
1 0.9166666666666666 0
1 0.5416666666666666 0
1 0.625 0
1 0.7083333333333333 0
1 0.7916666666666666 0
1 0.875 0
1 0.9583333333333333 0
0.9166666666666666 1 0
0.8333333333333334 1 0
0.75 1 0
0.6666666666666667 1 0
0.5833333333333334 1 0
0.5 1 0
0.4166666666666667 1 0
0.3333333333333334 1 0
0.25 1 0
0.1666666666666667 1 0
0.08333333333333337 1 0
0.9583333333333334 1 0
0.875 1 0
0.7916666666666667 1 0
0.7083333333333334 1 0
0.625 1 0
0.5416666666666667 1 0
0.4583333333333334 1 0
0.375 1 0
0.2916666666666667 1 0
0.2083333333333334 1 0
0.125 1 0
0.04166666666666674 1 0
0 0.9166666666666666 0
0 0.8333333333333334 0
0 0.75 0
0 0.6666666666666667 0
0 0.5833333333333334 0
0 0.9583333333333334 0
0 0.875 0
0 0.7916666666666667 0
0 0.7083333333333334 0
0 0.625 0
0 0.5416666666666667 0
0.08333333333333337 0.5833333333333334 0
0.08333333333333337 0.6666666666666667 0
0.08333333333333337 0.75 0
0.08333333333333337 0.8333333333333334 0
0.08333333333333343 0.9166666666666667 0
0.1666666666666666 0.5833333333333334 0
0.1666666666666667 0.6666666666666667 0
0.1666666666666667 0.75 0
0.1666666666666667 0.8333333333333334 0
0.1666666666666667 0.9166666666666667 0
0.2500000000000001 0.5833333333333333 0
0.25 0.6666666666666667 0
0.25 0.75 0
0.25 0.8333333333333333 0
0.2500000000000001 0.9166666666666666 0
0.3333333333333333 0.5833333333333334 0
0.3333333333333333 0.6666666666666666 0
0.3333333333333334 0.75 0
0.3333333333333334 0.8333333333333334 0
0.3333333333333334 0.9166666666666666 0
0.4166666666666666 0.5833333333333333 0
0.4166666666666667 0.6666666666666667 0
0.4166666666666667 0.75 0
0.4166666666666667 0.8333333333333334 0
0.4166666666666667 0.9166666666666667 0
0.5 0.5833333333333333 0
0.5 0.6666666666666666 0
0.5 0.75 0
0.5 0.8333333333333333 0
0.5 0.9166666666666666 0
0.5833333333333333 0.5833333333333333 0
0.5833333333333333 0.6666666666666666 0
0.5833333333333333 0.75 0
0.5833333333333334 0.8333333333333333 0
0.5833333333333334 0.9166666666666666 0
0.6666666666666666 0.5833333333333333 0
0.6666666666666666 0.6666666666666666 0
0.6666666666666666 0.75 0
0.6666666666666667 0.8333333333333333 0
0.6666666666666667 0.9166666666666666 0
0.75 0.5833333333333333 0
0.75 0.6666666666666666 0
0.75 0.75 0
0.75 0.8333333333333334 0
0.75 0.9166666666666666 0
0.8333333333333333 0.5833333333333333 0
0.8333333333333334 0.6666666666666666 0
0.8333333333333334 0.75 0
0.8333333333333333 0.8333333333333333 0
0.8333333333333334 0.9166666666666666 0
0.9166666666666665 0.5833333333333333 0
0.9166666666666667 0.6666666666666666 0
0.9166666666666667 0.75 0
0.9166666666666667 0.8333333333333333 0
0.9166666666666666 0.9166666666666666 0
0.08333333333333337 0.5416666666666667 0
0.04166666666666669 0.5833333333333334 0
0.04166666666666674 0.5416666666666667 0
0.08333333333333337 0.625 0
0.04166666666666669 0.6666666666666667 0
0.04166666666666669 0.625 0
0.08333333333333337 0.7083333333333334 0
0.04166666666666669 0.75 0
0.04166666666666669 0.7083333333333334 0
0.08333333333333337 0.7916666666666666 0
0.04166666666666669 0.8333333333333334 0
0.04166666666666669 0.7916666666666666 0
0.08333333333333337 0.875 0
0.04166666666666674 0.9166666666666667 0
0.04166666666666674 0.875 0
0.08333333333333337 0.9583333333333334 0
0.04166666666666669 0.9583333333333334 0
0.1666666666666666 0.5416666666666667 0
0.125 0.5833333333333334 0
0.125 0.5416666666666667 0
0.1666666666666667 0.625 0
0.1250000000000001 0.6666666666666667 0
0.1250000000000001 0.625 0
0.1666666666666667 0.7083333333333334 0
0.1250000000000001 0.75 0
0.125 0.7083333333333334 0
0.1666666666666667 0.7916666666666666 0
0.1250000000000001 0.8333333333333334 0
0.125 0.7916666666666666 0
0.1666666666666667 0.875 0
0.1250000000000001 0.9166666666666667 0
0.125 0.875 0
0.1666666666666667 0.9583333333333334 0
0.125 0.9583333333333334 0
0.25 0.5416666666666666 0
0.2083333333333334 0.5833333333333334 0
0.2083333333333333 0.5416666666666667 0
0.25 0.625 0
0.2083333333333334 0.6666666666666667 0
0.2083333333333334 0.625 0
0.25 0.7083333333333334 0
0.2083333333333334 0.75 0
0.2083333333333334 0.7083333333333334 0
0.25 0.7916666666666666 0
0.2083333333333334 0.8333333333333333 0
0.2083333333333334 0.7916666666666666 0
0.25 0.875 0
0.2083333333333334 0.9166666666666666 0
0.2083333333333334 0.875 0
0.25 0.9583333333333333 0
0.2083333333333334 0.9583333333333333 0
0.3333333333333333 0.5416666666666667 0
0.2916666666666666 0.5833333333333334 0
0.2916666666666667 0.5416666666666666 0
0.3333333333333333 0.625 0
0.2916666666666666 0.6666666666666666 0
0.2916666666666666 0.625 0
0.3333333333333333 0.7083333333333334 0
0.2916666666666667 0.75 0
0.2916666666666666 0.7083333333333334 0
0.3333333333333334 0.7916666666666666 0
0.2916666666666667 0.8333333333333333 0
0.2916666666666667 0.7916666666666666 0
0.3333333333333334 0.875 0
0.2916666666666667 0.9166666666666666 0
0.2916666666666667 0.875 0
0.3333333333333334 0.9583333333333333 0
0.2916666666666667 0.9583333333333333 0
0.4166666666666666 0.5416666666666666 0
0.3749999999999999 0.5833333333333334 0
0.375 0.5416666666666667 0
0.4166666666666666 0.625 0
0.375 0.6666666666666666 0
0.3749999999999999 0.625 0
0.4166666666666667 0.7083333333333334 0
0.375 0.75 0
0.375 0.7083333333333334 0
0.4166666666666667 0.7916666666666666 0
0.3750000000000001 0.8333333333333334 0
0.3750000000000001 0.7916666666666666 0
0.4166666666666667 0.875 0
0.375 0.9166666666666666 0
0.3750000000000001 0.875 0
0.4166666666666667 0.9583333333333334 0
0.375 0.9583333333333334 0
0.5 0.5416666666666666 0
0.4583333333333333 0.5833333333333333 0
0.4583333333333333 0.5416666666666667 0
0.5 0.625 0
0.4583333333333334 0.6666666666666666 0
0.4583333333333333 0.625 0
0.5 0.7083333333333334 0
0.4583333333333334 0.75 0
0.4583333333333334 0.7083333333333334 0
0.5 0.7916666666666666 0
0.4583333333333334 0.8333333333333333 0
0.4583333333333334 0.7916666666666666 0
0.5 0.875 0
0.4583333333333334 0.9166666666666666 0
0.4583333333333334 0.875 0
0.5 0.9583333333333333 0
0.4583333333333334 0.9583333333333334 0
0.5833333333333333 0.5416666666666666 0
0.5416666666666666 0.5833333333333333 0
0.5416666666666666 0.5416666666666667 0
0.5833333333333333 0.625 0
0.5416666666666666 0.6666666666666666 0
0.5416666666666666 0.625 0
0.5833333333333333 0.7083333333333334 0
0.5416666666666666 0.75 0
0.5416666666666666 0.7083333333333334 0
0.5833333333333334 0.7916666666666666 0
0.5416666666666667 0.8333333333333333 0
0.5416666666666666 0.7916666666666666 0
0.5833333333333334 0.875 0
0.5416666666666667 0.9166666666666666 0
0.5416666666666667 0.875 0
0.5833333333333334 0.9583333333333333 0
0.5416666666666667 0.9583333333333333 0
0.6666666666666666 0.5416666666666666 0
0.625 0.5833333333333333 0
0.625 0.5416666666666667 0
0.6666666666666666 0.625 0
0.625 0.6666666666666666 0
0.625 0.625 0
0.6666666666666666 0.7083333333333334 0
0.625 0.75 0
0.625 0.7083333333333334 0
0.6666666666666667 0.7916666666666666 0
0.625 0.8333333333333333 0
0.625 0.7916666666666666 0
0.6666666666666667 0.875 0
0.625 0.9166666666666666 0
0.625 0.875 0
0.6666666666666667 0.9583333333333333 0
0.625 0.9583333333333333 0
0.75 0.5416666666666666 0
0.7083333333333333 0.5833333333333333 0
0.7083333333333333 0.5416666666666667 0
0.75 0.625 0
0.7083333333333333 0.6666666666666666 0
0.7083333333333333 0.625 0
0.75 0.7083333333333333 0
0.7083333333333333 0.75 0
0.7083333333333333 0.7083333333333334 0
0.75 0.7916666666666666 0
0.7083333333333334 0.8333333333333333 0
0.7083333333333334 0.7916666666666666 0
0.75 0.875 0
0.7083333333333334 0.9166666666666666 0
0.7083333333333333 0.875 0
0.75 0.9583333333333333 0
0.7083333333333333 0.9583333333333333 0
0.8333333333333333 0.5416666666666666 0
0.7916666666666666 0.5833333333333333 0
0.7916666666666666 0.5416666666666667 0
0.8333333333333333 0.625 0
0.7916666666666667 0.6666666666666666 0
0.7916666666666667 0.625 0
0.8333333333333334 0.7083333333333334 0
0.7916666666666667 0.75 0
0.7916666666666667 0.7083333333333334 0
0.8333333333333334 0.7916666666666666 0
0.7916666666666666 0.8333333333333333 0
0.7916666666666666 0.7916666666666666 0
0.8333333333333334 0.875 0
0.7916666666666667 0.9166666666666666 0
0.7916666666666667 0.875 0
0.8333333333333334 0.9583333333333333 0
0.7916666666666667 0.9583333333333333 0
0.9166666666666666 0.5416666666666666 0
0.8749999999999999 0.5833333333333333 0
0.875 0.5416666666666667 0
0.9166666666666666 0.625 0
0.875 0.6666666666666666 0
0.875 0.625 0
0.9166666666666667 0.7083333333333334 0
0.875 0.75 0
0.875 0.7083333333333334 0
0.9166666666666667 0.7916666666666666 0
0.875 0.8333333333333333 0
0.875 0.7916666666666666 0
0.9166666666666667 0.875 0
0.875 0.9166666666666666 0
0.875 0.875 0
0.9166666666666666 0.9583333333333333 0
0.875 0.9583333333333333 0
0.9583333333333333 0.5833333333333333 0
0.9583333333333333 0.5416666666666667 0
0.9583333333333334 0.6666666666666666 0
0.9583333333333333 0.625 0
0.9583333333333334 0.75 0
0.9583333333333334 0.7083333333333334 0
0.9583333333333334 0.8333333333333333 0
0.9583333333333334 0.7916666666666666 0
0.9583333333333333 0.9166666666666666 0
0.9583333333333333 0.875 0
0.9583333333333333 0.9583333333333333 0

CELLS 108 864
3 0 4 15
3 4 5 16
3 5 6 17
3 6 7 18
3 7 8 19
3 8 9 20
3 9 10 21
3 10 11 22
3 11 12 23
3 12 13 24
3 13 14 25
3 14 1 26
3 1 27 32
3 27 28 33
3 28 29 34
3 29 30 35
3 30 31 36
3 31 2 37
3 2 38 49
3 38 39 50
3 39 40 51
3 40 41 52
3 41 42 53
3 42 43 54
3 43 44 55
3 44 45 56
3 45 46 57
3 46 47 58
3 47 48 59
3 48 3 60
3 3 61 66
3 61 62 67
3 62 63 68
3 63 64 69
3 64 65 70
3 65 0 71
9 0 4 72 65 15 127 128 71 129
9 65 72 73 64 128 130 131 70 132
9 64 73 74 63 131 133 134 69 135
9 63 74 75 62 134 136 137 68 138
9 62 75 76 61 137 139 140 67 141
9 61 76 48 3 140 142 60 66 143
9 4 5 77 72 16 144 145 127 146
9 72 77 78 73 145 147 148 130 149
9 73 78 79 74 148 150 151 133 152
9 74 79 80 75 151 153 154 136 155
9 75 80 81 76 154 156 157 139 158
9 76 81 47 48 157 159 59 142 160
9 5 6 82 77 17 161 162 144 163
9 77 82 83 78 162 164 165 147 166
9 78 83 84 79 165 167 168 150 169
9 79 84 85 80 168 170 171 153 172
9 80 85 86 81 171 173 174 156 175
9 81 86 46 47 174 176 58 159 177
9 6 7 87 82 18 178 179 161 180
9 82 87 88 83 179 181 182 164 183
9 83 88 89 84 182 184 185 167 186
9 84 89 90 85 185 187 188 170 189
9 85 90 91 86 188 190 191 173 192
9 86 91 45 46 191 193 57 176 194
9 7 8 92 87 19 195 196 178 197
9 87 92 93 88 196 198 199 181 200
9 88 93 94 89 199 201 202 184 203
9 89 94 95 90 202 204 205 187 206
9 90 95 96 91 205 207 208 190 209
9 91 96 44 45 208 210 56 193 211
9 8 9 97 92 20 212 213 195 214
9 92 97 98 93 213 215 216 198 217
9 93 98 99 94 216 218 219 201 220
9 94 99 100 95 219 221 222 204 223
9 95 100 101 96 222 224 225 207 226
9 96 101 43 44 225 227 55 210 228
9 9 10 102 97 21 229 230 212 231
9 97 102 103 98 230 232 233 215 234
9 98 103 104 99 233 235 236 218 237
9 99 104 105 100 236 238 239 221 240
9 100 105 106 101 239 241 242 224 243
9 101 106 42 43 242 244 54 227 245
9 10 11 107 102 22 246 247 229 248
9 102 107 108 103 247 249 250 232 251
9 103 108 109 104 250 252 253 235 254
9 104 109 110 105 253 255 256 238 257
9 105 110 111 106 256 258 259 241 260
9 106 111 41 42 259 261 53 244 262
9 11 12 112 107 23 263 264 246 265
9 107 112 113 108 264 266 267 249 268
9 108 113 114 109 267 269 270 252 271
9 109 114 115 110 270 272 273 255 274
9 110 115 116 111 273 275 276 258 277
9 111 116 40 41 276 278 52 261 279
9 12 13 117 112 24 280 281 263 282
9 112 117 118 113 281 283 284 266 285
9 113 118 119 114 284 286 287 269 288
9 114 119 120 115 287 289 290 272 291
9 115 120 121 116 290 292 293 275 294
9 116 121 39 40 293 295 51 278 296
9 13 14 122 117 25 297 298 280 299
9 117 122 123 118 298 300 301 283 302
9 118 123 124 119 301 303 304 286 305
9 119 124 125 120 304 306 307 289 308
9 120 125 126 121 307 309 310 292 311
9 121 126 38 39 310 312 50 295 313
9 14 1 27 122 26 32 314 297 315
9 122 27 28 123 314 33 316 300 317
9 123 28 29 124 316 34 318 303 319
9 124 29 30 125 318 35 320 306 321
9 125 30 31 126 320 36 322 309 323
9 126 31 2 38 322 37 49 312 324

CELL_TYPES 108
21
21
21
21
21
21
21
21
21
21
21
21
21
21
21
21
21
21
21
21
21
21
21
21
21
21
21
21
21
21
21
21
21
21
21
21
28
28
28
28
28
28
28
28
28
28
28
28
28
28
28
28
28
28
28
28
28
28
28
28
28
28
28
28
28
28
28
28
28
28
28
28
28
28
28
28
28
28
28
28
28
28
28
28
28
28
28
28
28
28
28
28
28
28
28
28
28
28
28
28
28
28
28
28
28
28
28
28

CELL_DATA 108
SCALARS CellEntityIds int 1
LOOKUP_TABLE default
1
1
1
1
1
1
1
1
1
1
1
1
2
2
2
2
2
2
2
2
2
2
2
2
2
2
2
2
2
2
2
2
2
2
2
2
1
1
1
1
1
1
1
1
1
1
1
1
1
1
1
1
1
1
1
1
1
1
1
1
1
1
1
1
1
1
1
1
1
1
1
1
1
1
1
1
1
1
1
1
1
1
1
1
1
1
1
1
1
1
1
1
1
1
1
1
1
1
1
1
1
1
1
1
1
1
1
1
