<VTKFile type="UnstructuredGrid" version="1.0">
<UnstructuredGrid>
<FieldData>
<DataArray type="Float64" Name="TIME" NumberOfTuples="1" format="ascii" RangeMin="15" RangeMax="15">
15
</DataArray>
</FieldData>
<Piece NumberOfPoints="15756" NumberOfCells="12500">
<Points>
<DataArray type="Float64" NumberOfComponents="3" format="ascii">
0 0 400 100 0 400 100 25 400 0
25 400 0 0 403.75 100 0 403.75 100 25
403.75 0 25 403.75 1 0 400 2 0 400
3 0 400 4 0 400 5 0 400 6
0 400 7 0 400 8 0 400 9 0
400 10 0 400 11 0 400 12 0 400
13 0 400 14 0 400 15 0 400 16
0 400 17 0 400 18 0 400 19 0
400 20 0 400 21 0 400 22 0 400
23 0 400 24 0 400 25 0 400 26
0 400 27 0 400 28 0 400 29 0
400 30 0 400 31 0 400 32 0 400
33 0 400 34 0 400 35 0 400 36
0 400 37 0 400 38 0 400 39 0
400 40 0 400 41 0 400 42 0 400
43 0 400 44 0 400 45 0 400 46
0 400 47 0 400 48 0 400 49 0
400 50 0 400 51 0 400 52 0 400
53 0 400 54 0 400 55 0 400 56
0 400 57 0 400 58 0 400 59 0
400 60 0 400 61 0 400 62 0 400
63 0 400 64 0 400 65 0 400 66
0 400 67 0 400 68 0 400 69 0
400 70 0 400 71 0 400 72 0 400
73 0 400 74 0 400 75 0 400 76
0 400 77 0 400 78 0 400 79 0
400 80 0 400 81 0 400 82 0 400
83 0 400 84 0 400 85 0 400 86
0 400 87 0 400 88 0 400 89 0
400 90 0 400 91 0 400 92 0 400
93 0 400 94 0 400 95 0 400 96
0 400 97 0 400 98 0 400 99 0
400 100 1 400 100 2 400 100 3 400
100 4 400 100 5 400 100 6 400 100
7 400 100 8 400 100 9 400 100 10
400 100 11 400 100 12 400 100 13 400
100 14 400 100 15 400 100 16 400 100
17 400 100 18 400 100 19 400 100 20
400 100 21 400 100 22 400 100 23 400
100 24 400 99 25 400 98 25 400 97
25 400 96 25 400 95 25 400 94 25
400 93 25 400 92 25 400 91 25 400
90 25 400 89 25 400 88 25 400 87
25 400 86 25 400 85 25 400 84 25
400 83 25 400 82 25 400 81 25 400
80 25 400 79 25 400 78 25 400 77
25 400 76 25 400 75 25 400 74 25
400 73 25 400 72 25 400 71 25 400
70 25 400 69 25 400 68 25 400 67
25 400 66 25 400 65 25 400 64 25
400 63 25 400 62 25 400 61 25 400
60 25 400 59 25 400 58 25 400 57
25 400 56 25 400 55 25 400 54 25
400 53 25 400 52 25 400 51 25 400
50 25 400 49 25 400 48 25 400 47
25 400 46 25 400 45 25 400 44 25
400 43 25 400 42 25 400 41 25 400
40 25 400 39 25 400 38 25 400 37
25 400 36 25 400 35 25 400 34 25
400 33 25 400 32 25 400 31 25 400
30 25 400 29 25 400 28 25 400 27
25 400 26 25 400 25 25 400 24 25
400 23 25 400 22 25 400 21 25 400
20 25 400 19 25 400 18 25 400 17
25 400 16 25 400 15 25 400 14 25
400 13 25 400 12 25 400 11 25 400
10 25 400 9 25 400 8 25 400 7
25 400 6 25 400 5 25 400 4 25
400 3 25 400 2 25 400 1 25 400
0 24 400 0 23 400 0 22 400 0
21 400 0 20 400 0 19 400 0 18
400 0 17 400 0 16 400 0 15 400
0 14 400 0 13 400 0 12 400 0
11 400 0 10 400 0 9 400 0 8
400 0 7 400 0 6 400 0 5 400
0 4 400 0 3 400 0 2 400 0
1 400 1 0 403.75 2 0 403.75 3 0
403.75 4 0 403.75 5 0 403.75 6 0 403.75
7 0 403.75 8 0 403.75 9 0 403.75 10
0 403.75 11 0 403.75 12 0 403.75 13 0
403.75 14 0 403.75 15 0 403.75 16 0 403.75
17 0 403.75 18 0 403.75 19 0 403.75 20
0 403.75 21 0 403.75 22 0 403.75 23 0
403.75 24 0 403.75 25 0 403.75 26 0 403.75
27 0 403.75 28 0 403.75 29 0 403.75 30
0 403.75 31 0 403.75 32 0 403.75 33 0
403.75 34 0 403.75 35 0 403.75 36 0 403.75
37 0 403.75 38 0 403.75 39 0 403.75 40
0 403.75 41 0 403.75 42 0 403.75 43 0
403.75 44 0 403.75 45 0 403.75 46 0 403.75
47 0 403.75 48 0 403.75 49 0 403.75 50
0 403.75 51 0 403.75 52 0 403.75 53 0
403.75 54 0 403.75 55 0 403.75 56 0 403.75
57 0 403.75 58 0 403.75 59 0 403.75 60
0 403.75 61 0 403.75 62 0 403.75 63 0
403.75 64 0 403.75 65 0 403.75 66 0 403.75
67 0 403.75 68 0 403.75 69 0 403.75 70
0 403.75 71 0 403.75 72 0 403.75 73 0
403.75 74 0 403.75 75 0 403.75 76 0 403.75
77 0 403.75 78 0 403.75 79 0 403.75 80
0 403.75 81 0 403.75 82 0 403.75 83 0
403.75 84 0 403.75 85 0 403.75 86 0 403.75
87 0 403.75 88 0 403.75 89 0 403.75 90
0 403.75 91 0 403.75 92 0 403.75 93 0
403.75 94 0 403.75 95 0 403.75 96 0 403.75
97 0 403.75 98 0 403.75 99 0 403.75 100
1 403.75 100 2 403.75 100 3 403.75 100 4
403.75 100 5 403.75 100 6 403.75 100 7 403.75
100 8 403.75 100 9 403.75 100 10 403.75 100
11 403.75 100 12 403.75 100 13 403.75 100 14
403.75 100 15 403.75 100 16 403.75 100 17 403.75
100 18 403.75 100 19 403.75 100 20 403.75 100
21 403.75 100 22 403.75 100 23 403.75 100 24
403.75 99 25 403.75 98 25 403.75 97 25 403.75
96 25 403.75 95 25 403.75 94 25 403.75 93
25 403.75 92 25 403.75 91 25 403.75 90 25
403.75 89 25 403.75 88 25 403.75 87 25 403.75
86 25 403.75 85 25 403.75 84 25 403.75 83
25 403.75 82 25 403.75 81 25 403.75 80 25
403.75 79 25 403.75 78 25 403.75 77 25 403.75
76 25 403.75 75 25 403.75 74 25 403.75 73
25 403.75 72 25 403.75 71 25 403.75 70 25
403.75 69 25 403.75 68 25 403.75 67 25 403.75
66 25 403.75 65 25 403.75 64 25 403.75 63
25 403.75 62 25 403.75 61 25 403.75 60 25
403.75 59 25 403.75 58 25 403.75 57 25 403.75
56 25 403.75 55 25 403.75 54 25 403.75 53
25 403.75 52 25 403.75 51 25 403.75 50 25
403.75 49 25 403.75 48 25 403.75 47 25 403.75
46 25 403.75 45 25 403.75 44 25 403.75 43
25 403.75 42 25 403.75 41 25 403.75 40 25
403.75 39 25 403.75 38 25 403.75 37 25 403.75
36 25 403.75 35 25 403.75 34 25 403.75 33
25 403.75 32 25 403.75 31 25 403.75 30 25
403.75 29 25 403.75 28 25 403.75 27 25 403.75
26 25 403.75 25 25 403.75 24 25 403.75 23
25 403.75 22 25 403.75 21 25 403.75 20 25
403.75 19 25 403.75 18 25 403.75 17 25 403.75
16 25 403.75 15 25 403.75 14 25 403.75 13
25 403.75 12 25 403.75 11 25 403.75 10 25
403.75 9 25 403.75 8 25 403.75 7 25 403.75
6 25 403.75 5 25 403.75 4 25 403.75 3
25 403.75 2 25 403.75 1 25 403.75 0 24
403.75 0 23 403.75 0 22 403.75 0 21 403.75
0 20 403.75 0 19 403.75 0 18 403.75 0
17 403.75 0 16 403.75 0 15 403.75 0 14
403.75 0 13 403.75 0 12 403.75 0 11 403.75
0 10 403.75 0 9 403.75 0 8 403.75 0
7 403.75 0 6 403.75 0 5 403.75 0 4
403.75 0 3 403.75 0 2 403.75 0 1 403.75
0 0 400.75 0 0 401.5 0 0 402.25 0
0 403 100 0 400.75 100 0 401.5 100 0
402.25 100 0 403 100 25 400.75 100 25 401.5
100 25 402.25 100 25 403 0 25 400.75 0
25 401.5 0 25 402.25 0 25 403 1 1
400 1 2 400 1 3 400 1 4 400
1 5 400 1 6 400 1 7 400 1
8 400 1 9 400 1 10 400 1 11
400 1 12 400 1 13 400 1 14 400
1 15 400 1 16 400 1 17 400 1
18 400 1 19 400 1 20 400 1 21
400 1 22 400 1 23 400 1 24 400
2 1 400 2 2 400 2 3 400 2
4 400 2 5 400 2 6 400 2 7
400 2 8 400 2 9 400 2 10 400
2 11 400 2 12 400 2 13 400 2
14 400 2 15 400 2 16 400 2 17
400 2 18 400 2 19 400 2 20 400
2 21 400 2 22 400 2 23 400 2
24 400 3 1 400 3 2 400 3 3
400 3 4 400 3 5 400 3 6 400
3 7 400 3 8 400 3 9 400 3
10 400 3 11 400 3 12 400 3 13
400 3 14 400 3 15 400 3 16 400
3 17 400 3 18 400 3 19 400 3
20 400 3 21 400 3 22 400 3 23
400 3 24 400 4 1 400 4 2 400
4 3 400 4 4 400 4 5 400 4
6 400 4 7 400 4 8 400 4 9
400 4 10 400 4 11 400 4 12 400
4 13 400 4 14 400 4 15 400 4
16 400 4 17 400 4 18 400 4 19
400 4 20 400 4 21 400 4 22 400
4 23 400 4 24 400 5 1 400 5
2 400 5 3 400 5 4 400 5 5
400 5 6 400 5 7 400 5 8 400
5 9 400 5 10 400 5 11 400 5
12 400 5 13 400 5 14 400 5 15
400 5 16 400 5 17 400 5 18 400
5 19 400 5 20 400 5 21 400 5
22 400 5 23 400 5 24 400 6 1
400 6 2 400 6 3 400 6 4 400
6 5 400 6 6 400 6 7 400 6
8 400 6 9 400 6 10 400 6 11
400 6 12 400 6 13 400 6 14 400
6 15 400 6 16 400 6 17 400 6
18 400 6 19 400 6 20 400 6 21
400 6 22 400 6 23 400 6 24 400
7 1 400 7 2 400 7 3 400 7
4 400 7 5 400 7 6 400 7 7
400 7 8 400 7 9 400 7 10 400
7 11 400 7 12 400 7 13 400 7
14 400 7 15 400 7 16 400 7 17
400 7 18 400 7 19 400 7 20 400
7 21 400 7 22 400 7 23 400 7
24 400 8 1 400 8 2 400 8 3
400 8 4 400 8 5 400 8 6 400
8 7 400 8 8 400 8 9 400 8
10 400 8 11 400 8 12 400 8 13
400 8 14 400 8 15 400 8 16 400
8 17 400 8 18 400 8 19 400 8
20 400 8 21 400 8 22 400 8 23
400 8 24 400 9 1 400 9 2 400
9 3 400 9 4 400 9 5 400 9
6 400 9 7 400 9 8 400 9 9
400 9 10 400 9 11 400 9 12 400
9 13 400 9 14 400 9 15 400 9
16 400 9 17 400 9 18 400 9 19
400 9 20 400 9 21 400 9 22 400
9 23 400 9 24 400 10 1 400 10
2 400 10 3 400 10 4 400 10 5
400 10 6 400 10 7 400 10 8 400
10 9 400 10 10 400 10 11 400 10
12 400 10 13 400 10 14 400 10 15
400 10 16 400 10 17 400 10 18 400
10 19 400 10 20 400 10 21 400 10
22 400 10 23 400 10 24 400 11 1
400 11 2 400 11 3 400 11 4 400
11 5 400 11 6 400 11 7 400 11
8 400 11 9 400 11 10 400 11 11
400 11 12 400 11 13 400 11 14 400
11 15 400 11 16 400 11 17 400 11
18 400 11 19 400 11 20 400 11 21
400 11 22 400 11 23 400 11 24 400
12 1 400 12 2 400 12 3 400 12
4 400 12 5 400 12 6 400 12 7
400 12 8 400 12 9 400 12 10 400
12 11 400 12 12 400 12 13 400 12
14 400 12 15 400 12 16 400 12 17
400 12 18 400 12 19 400 12 20 400
12 21 400 12 22 400 12 23 400 12
24 400 13 1 400 13 2 400 13 3
400 13 4 400 13 5 400 13 6 400
13 7 400 13 8 400 13 9 400 13
10 400 13 11 400 13 12 400 13 13
400 13 14 400 13 15 400 13 16 400
13 17 400 13 18 400 13 19 400 13
20 400 13 21 400 13 22 400 13 23
400 13 24 400 14 1 400 14 2 400
14 3 400 14 4 400 14 5 400 14
6 400 14 7 400 14 8 400 14 9
400 14 10 400 14 11 400 14 12 400
14 13 400 14 14 400 14 15 400 14
16 400 14 17 400 14 18 400 14 19
400 14 20 400 14 21 400 14 22 400
14 23 400 14 24 400 15 1 400 15
2 400 15 3 400 15 4 400 15 5
400 15 6 400 15 7 400 15 8 400
15 9 400 15 10 400 15 11 400 15
12 400 15 13 400 15 14 400 15 15
400 15 16 400 15 17 400 15 18 400
15 19 400 15 20 400 15 21 400 15
22 400 15 23 400 15 24 400 16 1
400 16 2 400 16 3 400 16 4 400
16 5 400 16 6 400 16 7 400 16
8 400 16 9 400 16 10 400 16 11
400 16 12 400 16 13 400 16 14 400
16 15 400 16 16 400 16 17 400 16
18 400 16 19 400 16 20 400 16 21
400 16 22 400 16 23 400 16 24 400
17 1 400 17 2 400 17 3 400 17
4 400 17 5 400 17 6 400 17 7
400 17 8 400 17 9 400 17 10 400
17 11 400 17 12 400 17 13 400 17
14 400 17 15 400 17 16 400 17 17
400 17 18 400 17 19 400 17 20 400
17 21 400 17 22 400 17 23 400 17
24 400 18 1 400 18 2 400 18 3
400 18 4 400 18 5 400 18 6 400
18 7 400 18 8 400 18 9 400 18
10 400 18 11 400 18 12 400 18 13
400 18 14 400 18 15 400 18 16 400
18 17 400 18 18 400 18 19 400 18
20 400 18 21 400 18 22 400 18 23
400 18 24 400 19 1 400 19 2 400
19 3 400 19 4 400 19 5 400 19
[...]
<PointData>
<DataArray type="Float64" Name="press" NumberOfComponents="1" format="ascii">
100 91.7232 60 104.988 100 54.9357 60 68.2003 110.106 109.604
109.18 108.583 108.039 107.553 107.123 106.738 106.391 106.073 105.778 105.502
105.242 104.995 104.759 104.531 104.312 104.099 103.891 103.688 103.49 103.295
103.103 102.914 102.727 102.542 102.359 102.177 101.997 101.818 101.64 101.463
101.287 101.112 100.937 100.763 100.589 100.416 100.243 100.07 99.8978 99.7259
99.5542 99.3827 99.2115 99.0405 98.8696 98.699 98.5285 98.3582 98.1881 98.0181
97.8483 97.6787 97.5093 97.34 97.171 97.0023 96.8337 96.6655 96.4976 96.33
96.1628 95.996 95.8297 95.6639 95.4988 95.3343 95.1706 95.0077 94.8457 94.6849
94.5252 94.367 94.2102 94.0552 93.902 93.751 93.6024 93.4565 93.3136 93.1739
93.038 92.906 92.7786 92.656 92.5388 92.4275 92.3225 92.2244 92.1336 92.0508
91.9763 91.9106 91.8542 91.8075 91.7708 91.7444 91.7285 91.7178 91.7018 91.6749
91.637 91.5877 91.5266 91.4532 91.3667 91.2664 91.1511 91.0195 90.8699 90.7002
90.5077 90.2888 90.0387 89.7506 89.4141 89.0126 88.5163 87.8615 86.9222 85.1877
82.4665 82.47 85.202 86.9542 87.9185 88.6053 89.1407 89.5885 89.9783 90.327
90.6448 90.9385 91.2129 91.4718 91.7178 91.953 92.1793 92.3979 92.6101 92.8167
93.0186 93.2164 93.4107 93.602 93.7905 93.9768 94.1611 94.3436 94.5246 94.7042
94.8827 95.0602 95.2367 95.4125 95.5876 95.762 95.936 96.1094 96.2824 96.4551
96.6274 96.7994 96.9712 97.1427 97.314 97.4851 97.656 97.8268 97.9974 98.1678
98.3381 98.5082 98.6782 98.8481 99.0177 99.1873 99.3566 99.5257 99.6946 99.8633
100.032 100.2 100.368 100.535 100.702 100.869 101.035 101.2 101.365 101.529
101.693 101.855 102.016 102.176 102.335 102.492 102.648 102.801 102.953 103.102
103.248 103.391 103.532 103.668 103.8 103.928 104.051 104.169 104.281 104.386
104.485 104.576 104.659 104.734 104.8 104.856 104.903 104.94 104.966 104.982
104.993 105.009 105.036 105.075 105.124 105.186 105.259 105.346 105.447 105.563
105.696 105.846 106.017 106.21 106.43 106.68 106.967 107.298 107.681 108.128
108.64 109.212 109.618 110.109 77.4947 74.7536 72.9951 72.0265 71.3362 70.7979
70.3478 69.9558 69.6053 69.2859 68.9907 68.7148 68.4547 68.2076 67.9712 67.7439
67.5243 67.3112 67.1037 66.901 66.7024 66.5074 66.3155 66.1262 65.9393 65.7544
65.5713 65.3898 65.2097 65.0307 64.8528 64.6758 64.4996 64.3242 64.1494 63.9751
63.8014 63.628 63.4551 63.2826 63.1103 62.9384 62.7667 62.5952 62.424 62.253
62.0821 61.9115 61.741 61.5707 61.4006 61.2306 61.0608 60.8912 60.7218 60.5525
60.3835 60.2148 60.0462 59.878 59.7101 59.5425 59.3753 59.2085 59.0422 58.8764
58.7113 58.5468 58.3831 58.2202 58.0582 57.8974 57.7377 57.5795 57.4227 57.2677
57.1145 56.9635 56.8149 56.669 56.5261 56.3864 56.2505 56.1185 55.9911 55.8685
55.7513 55.64 55.535 55.4369 55.3461 55.2633 55.1888 55.1231 55.0667 55.02
54.9833 54.9569 54.941 54.9303 54.9143 54.8874 54.8495 54.8002 54.7391 54.6657
54.5792 54.4789 54.3636 54.232 54.0824 53.9128 53.7205 53.5021 53.2532 52.968
52.6392 52.2578 51.8138 51.3049 50.7378 50.3374 49.8553 49.8589 50.3516 50.7698
51.3618 51.9028 52.3859 52.8136 53.1957 53.5414 53.858 54.1513 54.4256 54.6843
54.9303 55.1655 55.3918 55.6104 55.8226 56.0292 56.2311 56.4289 56.6232 56.8145
57.003 57.1893 57.3736 57.5561 57.7371 57.9167 58.0952 58.2727 58.4492 58.625
58.8001 58.9745 59.1485 59.3219 59.4949 59.6676 59.8399 60.0119 60.1837 60.3552
60.5265 60.6976 60.8685 61.0393 61.2099 61.3803 61.5506 61.7207 61.8907 62.0606
62.2302 62.3998 62.5691 62.7382 62.9071 63.0758 63.2443 63.4124 63.5802 63.7477
63.9147 64.0813 64.2474 64.4128 64.5777 64.7418 64.905 65.0673 65.2286 65.3886
65.5473 65.7045 65.86 66.0136 66.1651 66.3141 66.4605 66.6039 66.7441 66.8805
67.0129 67.1408 67.2638 67.3814 67.4932 67.5986 67.6971 67.7882 67.8714 67.9462
68.0121 68.0687 68.1156 68.1525 68.179 68.195 68.2057 68.2218 68.2489 68.287
68.3366 68.398 68.4719 68.5589 68.6598 68.7758 68.9081 69.0586 69.2292 69.4228
69.643 69.8945 70.1843 70.5227 70.9265 71.4255 72.0836 73.0273 74.7679 77.4983
100 100 100 100 84.3657 77.0082 69.6507 62.2932 60 60
60 60 97.6303 90.2728 82.9153 75.5578 109.279 109.61 109.102 108.574
108.078 107.645 107.269 106.945 106.662 106.414 106.197 106.005 105.836 105.687
105.555 105.44 105.339 105.253 105.179 105.118 105.069 105.031 105.004 104.988
109.599 109.245 108.852 108.382 107.938 107.539 107.187 106.879 106.608 106.369
106.159 105.972 105.806 105.66 105.531 105.418 105.319 105.233 105.161 105.101
105.052 105.014 104.988 104.972 109.074 108.834 108.485 108.105 107.727 107.376
107.059 106.775 106.522 106.297 106.096 105.917 105.758 105.616 105.491 105.381
105.284 105.201 105.13 105.071 105.024 104.987 104.961 104.945 108.521 108.339
108.08 107.779 107.47 107.172 106.894 106.639 106.408 106.2 106.012 105.843
105.691 105.556 105.436 105.33 105.237 105.157 105.088 105.031 104.984 104.949
104.923 104.908 107.993 107.863 107.67 107.438 107.19 106.942 106.703 106.479
106.272 106.081 105.908 105.751 105.609 105.481 105.367 105.266 105.178 105.1
105.035 104.979 104.935 104.9 104.876 104.861 107.52 107.425 107.28 107.101
106.902 106.698 106.495 106.301 106.117 105.946 105.788 105.644 105.512 105.393
105.286 105.19 105.106 105.033 104.97 104.918 104.875 104.842 104.818 104.804
107.098 107.027 106.916 106.776 106.617 106.449 106.278 106.111 105.95 105.798
105.655 105.524 105.403 105.292 105.193 105.103 105.024 104.955 104.896 104.846
104.805 104.774 104.752 104.738 106.72 106.665 106.579 106.468 106.34 106.201
106.058 105.914 105.774 105.639 105.512 105.393 105.282 105.181 105.089 105.006
104.932 104.868 104.812 104.765 104.727 104.697 104.676 104.663 106.376 106.333
106.265 106.176 106.072 105.957 105.836 105.713 105.591 105.473 105.36 105.253
105.153 105.06 104.976 104.899 104.831 104.771 104.719 104.675 104.639 104.611
104.592 104.58 106.061 106.027 105.972 105.9 105.814 105.718 105.616 105.511
105.405 105.302 105.201 105.106 105.016 104.932 104.855 104.785 104.722 104.666
104.618 104.577 104.544 104.518 104.499 104.488 105.768 105.741 105.696 105.637
105.566 105.485 105.399 105.309 105.218 105.127 105.038 104.953 104.873 104.797
104.727 104.663 104.605 104.554 104.51 104.472 104.441 104.417 104.4 104.39
105.495 105.472 105.435 105.386 105.326 105.259 105.185 105.108 105.029 104.95
104.872 104.796 104.724 104.656 104.593 104.535 104.482 104.436 104.395 104.36
104.332 104.309 104.293 104.284 105.236 105.217 105.186 105.145 105.095 105.038
104.975 104.909 104.84 104.771 104.703 104.636 104.571 104.511 104.454 104.401
104.354 104.311 104.274 104.242 104.216 104.195 104.181 104.172 104.99 104.974
104.948 104.914 104.871 104.823 104.769 104.712 104.652 104.592 104.532 104.473
104.415 104.361 104.31 104.263 104.22 104.181 104.147 104.118 104.094 104.075
104.062 104.054 104.754 104.741 104.719 104.69 104.654 104.612 104.566 104.517
104.465 104.412 104.36 104.307 104.257 104.208 104.162 104.12 104.081 104.046
104.015 103.989 103.967 103.95 103.938 103.931 104.528 104.516 104.498 104.473
104.442 104.407 104.367 104.324 104.279 104.233 104.187 104.141 104.096 104.053
104.012 103.974 103.939 103.907 103.879 103.856 103.836 103.82 103.809 103.803
104.309 104.299 104.283 104.262 104.236 104.205 104.171 104.134 104.094 104.054
104.013 103.973 103.933 103.895 103.858 103.824 103.793 103.765 103.739 103.718
103.7 103.686 103.676 103.67 104.096 104.088 104.074 104.056 104.033 104.007
103.977 103.945 103.911 103.875 103.84 103.804 103.769 103.735 103.702 103.672
103.644 103.619 103.596 103.577 103.561 103.548 103.539 103.533 103.889 103.882
103.87 103.854 103.835 103.812 103.786 103.758 103.728 103.697 103.666 103.634
103.603 103.573 103.544 103.517 103.492 103.47 103.449 103.432 103.418 103.406
103.398 103.393 103.686 103.68 103.67 103.657 103.64 103.62 103.598 103.573
103.547 103.52 103.492 103.465 103.437 103.41 103.385 103.361 103.338 103.318
103.3 103.285 103.272 103.261 103.254 103.25 103.488 103.483 103.474 103.462
103.448 103.43 103.411 103.39 103.367 103.343 103.319 103.294 103.27 103.247
103.224 103.202 103.183 103.164 103.148 103.134 103.123 103.114 103.107 103.103
103.293 103.289 103.281 103.271 103.258 103.243 103.226 103.208 103.188 103.167
103.145 103.124 103.103 103.082 103.062 103.043 103.025 103.009 102.994 102.982
102.971 102.963 102.957 102.954 103.102 103.098 103.091 103.082 103.071 103.058
103.043 103.027 103.009 102.991 102.972 102.953 102.934 102.916 102.898 102.881
102.866 102.851 102.838 102.827 102.818 102.811 102.805 102.802 102.913 102.909
102.903 102.896 102.886 102.875 102.862 102.847 102.832 102.816 102.799 102.783
102.766 102.75 102.734 102.719 102.705 102.692 102.681 102.671 102.663 102.656
102.651 102.648 102.726 102.723 102.718 102.711 102.703 102.693 102.681 102.669
102.655 102.641 102.627 102.612 102.597 102.583 102.569 102.555 102.543 102.532
102.522 102.513 102.505 102.5 102.495 102.493 102.541 102.538 102.534 102.528
102.521 102.512 102.502 102.491 102.479 102.467 102.454 102.441 102.428 102.415
102.403 102.391 102.38 102.37 102.361 102.353 102.347 102.342 102.338 102.336
102.358 102.356 102.352 102.347 102.34 102.333 102.324 102.314 102.304 102.293
102.282 102.27 102.259 102.248 102.237 102.226 102.216 102.208 102.2 102.193
102.187 102.182 102.179 102.177 102.177 102.175 102.171 102.167 102.161 102.154
102.147 102.138 102.129 102.119 102.11 102.099 102.089 102.079 102.07 102.061
102.052 102.044 102.037 102.031 102.026 102.021 102.018 102.017 101.997 101.995
101.992 101.988 101.983 101.977 101.97 101.963 101.955 101.946 101.938 101.929
101.92 101.911 101.902 101.894 101.887 101.88 101.873 101.868 101.863 101.86
101.857 101.855 101.818 101.816 101.814 101.81 101.806 101.8 101.795 101.788
101.781 101.773 101.766 101.758 101.75 101.742 101.735 101.727 101.721 101.714
101.709 101.704 101.7 101.697 101.694 101.693 101.64 101.638 101.636 101.633
101.629 101.625 101.619 101.614 101.608 101.601 101.594 101.587 101.58 101.573
101.567 101.56 101.554 101.549 101.544 101.539 101.536 101.533 101.531 101.53
101.463 101.462 101.46 101.457 101.454 101.45 101.445 101.44 101.434 101.429
101.423 101.416 101.41 101.404 101.398 101.393 101.387 101.382 101.378 101.374
101.371 101.369 101.367 101.366 101.287 101.286 101.284 101.282 101.279 101.275
101.271 101.267 101.262 101.257 101.251 101.246 101.24 101.235 101.23 101.225
101.22 101.216 101.212 101.208 101.206 101.203 101.202 101.201 101.111 101.11
101.109 101.107 101.104 101.101 101.097 101.093 101.089 101.085 101.08 101.075
101.07 101.066 101.061 101.056 101.052 101.048 101.045 101.042 101.039 101.037
101.036 101.035 100.937 100.936 100.934 100.933 100.93 100.927 100.924 100.921
100.917 100.913 100.909 100.905 100.9 100.896 100.892 100.888 100.884 100.881
100.878 100.875 100.873 100.871 100.87 100.869 100.762 100.762 100.76 100.759
100.757 100.754 100.751 100.748 100.745 100.741 100.738 100.734 100.73 100.726
100.723 100.719 100.716 100.713 100.71 100.708 100.706 100.704 100.703 100.702
100.589 100.588 100.587 100.585 100.584 100.581 100.579 100.576 100.573 100.57
100.567 100.563 100.56 100.557 100.553 100.55 100.547 100.545 100.542 100.54
100.538 100.537 100.536 100.535 100.415 100.415 100.414 100.413 100.411 100.409
100.407 100.404 100.402 100.399 100.396 100.393 100.39 100.387 100.384 100.381
100.379 100.376 100.374 100.372 100.371 100.369 100.368 100.368 100.242 100.242
100.241 100.24 100.239 100.237 100.235 100.233 100.23 100.228 100.225 100.222
100.22 100.217 100.215 100.212 100.21 100.208 100.206 100.204 100.203 100.201
100.201 100.2 100.07 100.069 100.069 100.068 100.066 100.065 100.063 100.061
100.059 100.057 100.054 100.052 100.05 100.047 100.045 100.043 100.041 100.039
100.037 100.035 100.034 100.033 100.032 100.032 99.8977 99.8973 99.8966 99.8957
99.8945 99.8931 99.8915 99.8898 99.8879 99.8858 99.8837 99.8816 99.8794 99.8773
99.8752 99.8732 99.8713 99.8695 99.868 99.8666 99.8654 99.8645 99.8639 99.8635
99.7258 99.7254 99.7248 99.7239 99.7229 99.7216 99.7202 99.7186 99.7169 99.715
99.7131 99.7112 99.7092 99.7073 99.7054 99.7036 99.7018 99.7003 99.6988 99.6976
99.6966 99.6957 99.6951 99.6948 99.5541 99.5537 99.5532 99.5524 99.5515 99.5503
99.549 99.5475 99.546 99.5443 99.5426 99.5408 99.539 99.5372 99.5355 99.5339
99.5323 99.5309 99.5296 99.5284 99.5275 99.5267 99.5262 99.5258 99.3826 99.3823
99.3818 99.3811 99.3802 99.3792 99.378 99.3766 99.3752 99.3737 99.3721 99.3704
99.3688 99.3672 99.3656 99.3641 99.3626 99.3613 99.3601 99.3591 99.3582 99.3575
99.357 99.3567 99.2114 99.2111 99.2107 99.21 99.2092 99.2082 99.2071 99.2059
99.2045 99.2031 99.2016 99.2001 99.1986 99.1971 99.1956 99.1942 99.1929 99.1916
99.1905 99.1896 99.1887 99.1881 99.1876 99.1874 99.0404 99.0401 99.0397 99.0391
99.0383 99.0374 99.0363 99.0352 99.0339 99.0326 99.0312 99.0298 99.0284 99.027
99.0256 99.0243 99.023 99.0219 99.0208 99.0199 99.0191 99.0185 99.0181 99.0178
98.8696 98.8693 98.8689 98.8683 98.8676 98.8667 98.8657 98.8646 98.8634 98.8622
98.8609 98.8595 98.8582 98.8568 98.8555 98.8542 98.8531 98.852 98.851 98.8501
98.8494 98.8488 98.8484 98.8482 98.6989 98.6987 98.6983 98.6977 98.697 98.6962
98.6952 98.6942 98.693 98.6918 98.6905 98.6892 98.6879 98.6867 98.6854 98.6842
98.683 98.682 98.681 98.6802 98.6795 98.679 98.6786 98.6783 98.5284 98.5282
98.5278 98.5272 98.5266 98.5258 98.5248 98.5238 98.5227 98.5215 98.5203 98.519
98.5177 98.5165 98.5152 98.5141 98.5129 98.5119 98.511 98.5102 98.5095 98.5089
98.5086 98.5083 98.3581 98.3579 98.3575 98.357 98.3563 98.3555 98.3545 98.3535
98.3524 98.3512 98.35 98.3488 98.3475 98.3463 98.345 98.3439 98.3428 98.3417
98.3408 98.34 98.3393 98.3388 98.3384 98.3382 98.188 98.1877 98.1873 98.1868
98.1861 98.1853 98.1844 98.1834 98.1822 98.1811 98.1798 98.1786 98.1773 98.176
98.1748 98.1736 98.1725 98.1715 98.1706 98.1697 98.1691 98.1685 98.1681 98.1679
98.018 98.0178 98.0174 98.0168 98.0161 98.0153 98.0143 98.0133 98.0121 98.0109
98.0097 98.0084 98.0071 98.0058 98.0045 98.0033 98.0022 98.0011 98.0002 97.9993
97.9986 97.9981 97.9977 97.9974 97.8482 97.848 97.8475 97.847 97.8462 97.8454
97.8444 97.8433 97.8421 97.8409 97.8396 97.8382 97.8369 97.8355 97.8342 97.833
97.8318 97.8307 97.8297 97.8288 97.8281 97.8275 97.8271 97.8269 97.6786 97.6783
97.6779 97.6773 97.6765 97.6756 97.6746 97.6734 97.6722 97.6709 97.6695 97.6681
97.6667 97.6652 97.6639 97.6625 97.6613 97.6601 97.6591 97.6582 97.6574 97.6568
97.6564 97.6561 97.5092 97.5089 97.5084 97.5078 97.507 97.506 97.5049 97.5037
97.5023 97.5009 97.4995 97.498 97.4964 97.4949 97.4935 97.4921 97.4907 97.4895
97.4884 97.4874 97.4866 97.4859 97.4855 97.4852 97.3399 97.3396 97.3391 97.3384
97.3376 97.3365 97.3353 97.334 97.3326 97.3311 97.3295 97.3279 97.3262 97.3246
97.323 97.3215 97.3201 97.3187 97.3175 97.3165 97.3156 97.3149 97.3144 97.3141
97.1709 97.1706 97.17 97.1693 97.1683 97.1672 97.1659 97.1645 97.1629 97.1613
97.1596 97.1578 97.156 97.1542 97.1525 97.1509 97.1493 97.1479 97.1465 97.1454
97.1444 97.1437 97.1431 97.1428 97.0021 97.0018 97.0012 97.0004 96.9993 96.9981
96.9967 96.9951 96.9934 96.9916 96.9897 96.9878 96.9858 96.9839 96.982 96.9801
96.9784 96.9768 96.9754 96.9742 96.9731 96.9723 96.9717 96.9713 96.8336 96.8332
96.8326 96.8316 96.8305 96.8291 96.8276 96.8258 96.824 96.822 96.8199 96.8177
96.8156 96.8134 96.8113 96.8093 96.8074 96.8057 96.8041 96.8027 96.8015 96.8006
96.7999 96.7995 96.6654 96.6649 96.6642 96.6632 96.6619 96.6604 96.6587 96.6567
96.6547 96.6524 96.6501 96.6478 96.6454 96.643 96.6407 96.6384 96.6363 96.6344
96.6326 96.6311 96.6298 96.6287 96.628 96.6275 96.4974 96.4969 96.4961 96.495
96.4936 96.4919 96.49 96.4878 96.4855 96.483 96.4804 96.4778 96.4751 96.4725
96.4699 96.4674 96.465 96.4629 96.4609 96.4592 96.4577 96.4566 96.4557 96.4552
96.3298 96.3293 96.3283 96.3271 96.3255 96.3236 96.3215 96.3191 96.3165 96.3137
96.3108 96.3079 96.3049 96.3019 96.299 96.2962 96.2936 96.2912 96.2889 96.287
96.2854 96.2841 96.2832 96.2826 96.1626 96.162 96.1609 96.1595 96.1578 96.1557
96.1533 96.1506 96.1477 96.1446 96.1413 96.138 96.1347 96.1313 96.1281 96.1249
96.122 96.1192 96.1167 96.1146 96.1128 96.1113 96.1102 96.1096 95.9958 95.9951
95.9939 95.9924 95.9904 95.988 95.9853 95.9823 95.979 95.9755 95.9719 95.9682
95.9644 95.9606 95.957 95.9534 95.9501 95.947 95.9442 95.9418 95.9397 95.9381
95.9369 95.9362 95.8295 95.8287 95.8274 95.8256 95.8234 95.8207 95.8177 95.8143
95.8106 95.8067 95.8026 95.7984 95.7941 95.7899 95.7858 95.7818 95.778 95.7745
95.7714 95.7686 95.7663 95.7645 95.7631 95.7623 95.6637 95.6628 95.6613 95.6593
95.6568 95.6538 95.6504 95.6466 95.6424 95.638 95.6334 95.6287 95.6239 95.6191
95.6144 95.6099 95.6057 95.6017 95.5982 95.595 95.5924 95.5903 95.5888 95.5879
95.4985 95.4975 95.4958 95.4936 95.4908 95.4874 95.4835 95.4792 95.4745 95.4696
95.4644 95.459 95.4536 95.4482 95.4429 95.4378 95.433 95.4285 95.4245 95.421
95.418 95.4156 95.4139 95.4129 95.3339 95.3328 95.331 95.3284 95.3253 95.3215
95.3171 95.3122 95.307 95.3013 95.2955 95.2894 95.2833 95.2772 95.2712 95.2654
95.26 95.2549 95.2504 95.2464 95.243 95.2403 95.2383 95.2371 95.1701 95.1689
95.1668 95.164 95.1604 95.1561 95.1512 95.1457 95.1397 95.1334 95.1267 95.1199
95.113 95.1061 95.0993 95.0928 95.0866 95.0808 95.0757 95.0711 95.0673 95.0642
95.062 95.0606 95.0072 95.0058 95.0035 95.0003 94.9962 94.9914 94.9858 94.9796
94.9729 94.9657 94.9582 94.9505 94.9427 94.9348 94.9272 94.9198 94.9127 94.9062
94.9003 94.8952 94.8908 94.8873 94.8848 94.8832 94.8452 94.8436 94.841 94.8374
94.8328 94.8274 94.8211 94.8142 94.8066 94.7985 94.79 94.7812 94.7723 94.7635
94.7548 94.7464 94.7384 94.731 94.7243 94.7184 94.7134 94.7095 94.7066 94.7048
94.6843 94.6825 94.6796 94.6755 94.6704 94.6642 94.6572 94.6493 94.6407 94.6316
94.622 94.6121 94.602 94.592 94.5821 94.5725 94.5635 94.5551 94.5474 94.5407
94.5351 94.5305 94.5273 94.5253 94.5246 94.5226 94.5193 94.5147 94.5089 94.502
94.494 94.4852 94.4755 94.4651 94.4543 94.4431 94.4317 94.4203 94.4091 94.3982
94.3879 94.3783 94.3696 94.362 94.3556 94.3504 94.3466 94.3444 94.3662 94.364
94.3602 94.3551 94.3486 94.3408 94.3318 94.3218 94.3109 94.2992 94.287 94.2743
94.2614 94.2484 94.2357 94.2234 94.2117 94.2007 94.1908 94.1821 94.1747 94.1689
94.1646 94.162 94.2094 94.2068 94.2026 94.1969 94.1895 94.1808 94.1707 94.1594
94.1471 94.1339 94.1201 94.1057 94.0911 94.0764 94.062 94.0479 94.0346 94.0221
94.0108 94.0009 93.9924 93.9857 93.9808 93.9778 94.0542 94.0514 94.0467 94.0402
94.032 94.0221 94.0108 93.9981 93.9842 93.9693 93.9537 93.9374 93.9208 93.9042
93.8878 93.8718 93.8566 93.8424 93.8295 93.8181 93.8084 93.8007 93.7951 93.7917
93.901 93.8978 93.8925 93.8852 93.876 93.865 93.8522 93.838 93.8223 93.8055
93.7878 93.7695 93.7507 93.7318 93.7131 93.695 93.6776 93.6614 93.6466 93.6336
93.6225 93.6137 93.6072 93.6033 93.7498 93.7463 93.7404 93.7323 93.7219 93.7096
93.6953 93.6792 93.6616 93.6427 93.6227 93.6019 93.5807 93.5592 93.538 93.5173
93.4975 93.479 93.462 93.4471 93.4344 93.4242 93.4168 93.4122 93.6011 93.5971
93.5906 93.5815 93.5699 93.5561 93.54 93.522 93.5022 93.4809 93.4584 93.4349
93.4108 93.3865 93.3623 93.3387 93.3161 93.2949 93.2755 93.2583 93.2437 93.232
93.2234 93.2182 93.455 93.4506 93.4433 93.4331 93.4202 93.4047 93.3868 93.3666
93.3444 93.3204 93.295 93.2685 93.2412 93.2136 93.1861 93.1592 93.1333 93.109
93.0867 93.067 93.0501 93.0366 93.0267 93.0206 93.3119 93.307 93.2989 93.2876
93.2732 93.2559 93.2359 93.2133 93.1884 93.1614 93.1328 93.1028 93.072 93.0406
93.0093 92.9786 92.949 92.9211 92.8955 92.8727 92.8532 92.8376 92.8261 92.8191
93.1721 93.1667 93.1576 93.1451 93.1291 93.1098 93.0875 93.0622 93.0344 93.0041
92.9719 92.9381 92.9032 92.8676 92.832 92.7969 92.763 92.7309 92.7014 92.675
92.6525 92.6343 92.621 92.6128 93.0359 93.0299 93.0199 93.006 92.9883 92.9669
92.942 92.9139 92.8827 92.8488 92.8127 92.7746 92.7351 92.6947 92.6542 92.6141
92.5752 92.5382 92.5041 92.4736 92.4474 92.4262 92.4106 92.4011 92.9038 92.8972
92.8861 92.8707 92.8511 92.8275 92.7999 92.7685 92.7338 92.6959 92.6553 92.6125
92.5678 92.5221 92.4759 92.43 92.3853 92.3428 92.3033 92.2678 92.2372 92.2125