# vtk DataFile Version 2.0
box, Created by Gmsh 4.13.1 
ASCII
DATASET UNSTRUCTURED_GRID
POINTS 27 double
0 0 0
1 0 0
1 1 0
0 1 0
0 0 1
1 0 1
1 1 1
0 1 1
0.4999999999986921 0 0
1 0.4999999999986921 0
0.5000000000020595 1 0
0 0.5000000000020595 0
0.4999999999986921 0 1
1 0.4999999999986921 1
0.5000000000020595 1 1
0 0.5000000000020595 1
0 0 0.5
1 0 0.5
1 1 0.5
0 1 0.5
0.5000000000003758 0.5000000000003758 0
0.4999999999986921 0 0.5
1 0.4999999999986921 0.5
0.5000000000020595 1 0.5
0 0.5000000000020595 0.5
0.5000000000003758 0.5000000000003758 1
0.5000000000003758 0.5000000000003758 0.5

CELLS 16 112
4 0 8 20 11
4 11 20 10 3
4 8 1 9 20
4 20 9 2 10
4 4 12 25 15
4 15 25 14 7
4 12 5 13 25
4 25 13 6 14
8 0 8 20 11 16 21 26 24
8 16 21 26 24 4 12 25 15
8 11 20 10 3 24 26 23 19
8 24 26 23 19 15 25 14 7
8 8 1 9 20 21 17 22 26
8 21 17 22 26 12 5 13 25
8 20 9 2 10 26 22 18 23
8 26 22 18 23 25 13 6 14

CELL_TYPES 16
9
9
9
9
9
9
9
9
12
12
12
12
12
12
12
12

CELL_DATA 16
SCALARS CellEntityIds int 1
LOOKUP_TABLE default
1
1
1
1
2
2
2
2
1
1
1
1
1
1
1
1
