<VTKFile type="UnstructuredGrid" version="1.0">
<UnstructuredGrid>
<FieldData>
<DataArray type="Float64" Name="TIME" NumberOfTuples="1" format="ascii" RangeMin="101" RangeMax="101">
101
</DataArray>
</FieldData>
<Piece NumberOfPoints="325" NumberOfCells="192">
<Points>
<DataArray type="Float64" NumberOfComponents="3" format="ascii">
500 500 1500 375 500 1500 250 500 1500 125
500 1500 0 500 1500 500 375 1500 375 375
1500 250 375 1500 125 375 1500 0 375 1500
500 250 1500 375 250 1500 250 250 1500 125
250 1500 0 250 1500 500 125 1500 375 125
1500 250 125 1500 125 125 1500 0 125 1500
500 0 1500 375 0 1500 250 0 1500 125
0 1500 0 0 1500 500 500 1375 375 500
1375 250 500 1375 125 500 1375 0 500 1375
500 375 1375 375 375 1375 250 375 1375 125
375 1375 0 375 1375 500 250 1375 375 250
1375 250 250 1375 125 250 1375 0 250 1375
500 125 1375 375 125 1375 250 125 1375 125
125 1375 0 125 1375 500 0 1375 375 0
1375 250 0 1375 125 0 1375 0 0 1375
500 500 1250 375 500 1250 250 500 1250 125
500 1250 0 500 1250 500 375 1250 375 375
1250 250 375 1250 125 375 1250 0 375 1250
500 250 1250 375 250 1250 250 250 1250 125
250 1250 0 250 1250 500 125 1250 375 125
1250 250 125 1250 125 125 1250 0 125 1250
500 0 1250 375 0 1250 250 0 1250 125
0 1250 0 0 1250 500 500 1125 375 500
1125 250 500 1125 125 500 1125 0 500 1125
500 375 1125 375 375 1125 250 375 1125 125
375 1125 0 375 1125 500 250 1125 375 250
1125 250 250 1125 125 250 1125 0 250 1125
500 125 1125 375 125 1125 250 125 1125 125
125 1125 0 125 1125 500 0 1125 375 0
1125 250 0 1125 125 0 1125 0 0 1125
500 500 1000 375 500 1000 250 500 1000 125
500 1000 0 500 1000 500 375 1000 375 375
1000 250 375 1000 125 375 1000 0 375 1000
500 250 1000 375 250 1000 250 250 1000 125
250 1000 0 250 1000 500 125 1000 375 125
1000 250 125 1000 125 125 1000 0 125 1000
500 0 1000 375 0 1000 250 0 1000 125
0 1000 0 0 1000 500 500 875 375 500
875 250 500 875 125 500 875 0 500 875
500 375 875 375 375 875 250 375 875 125
375 875 0 375 875 500 250 875 375 250
875 250 250 875 125 250 875 0 250 875
500 125 875 375 125 875 250 125 875 125
125 875 0 125 875 500 0 875 375 0
875 250 0 875 125 0 875 0 0 875
500 500 750 375 500 750 250 500 750 125
500 750 0 500 750 500 375 750 375 375
750 250 375 750 125 375 750 0 375 750
500 250 750 375 250 750 250 250 750 125
250 750 0 250 750 500 125 750 375 125
750 250 125 750 125 125 750 0 125 750
500 0 750 375 0 750 250 0 750 125
0 750 0 0 750 500 500 625 375 500
625 250 500 625 125 500 625 0 500 625
500 375 625 375 375 625 250 375 625 125
375 625 0 375 625 500 250 625 375 250
625 250 250 625 125 250 625 0 250 625
500 125 625 375 125 625 250 125 625 125
125 625 0 125 625 500 0 625 375 0
625 250 0 625 125 0 625 0 0 625
500 500 500 375 500 500 250 500 500 125
500 500 0 500 500 500 375 500 375 375
500 250 375 500 125 375 500 0 375 500
500 250 500 375 250 500 250 250 500 125
250 500 0 250 500 500 125 500 375 125
500 250 125 500 125 125 500 0 125 500
500 0 500 375 0 500 250 0 500 125
0 500 0 0 500 500 500 375 375 500
375 250 500 375 125 500 375 0 500 375
500 375 375 375 375 375 250 375 375 125
375 375 0 375 375 500 250 375 375 250
375 250 250 375 125 250 375 0 250 375
500 125 375 375 125 375 250 125 375 125
125 375 0 125 375 500 0 375 375 0
375 250 0 375 125 0 375 0 0 375
500 500 250 375 500 250 250 500 250 125
500 250 0 500 250 500 375 250 375 375
250 250 375 250 125 375 250 0 375 250
500 250 250 375 250 250 250 250 250 125
250 250 0 250 250 500 125 250 375 125
250 250 125 250 125 125 250 0 125 250
500 0 250 375 0 250 250 0 250 125
0 250 0 0 250 500 500 125 375 500
125 250 500 125 125 500 125 0 500 125
500 375 125 375 375 125 250 375 125 125
375 125 0 375 125 500 250 125 375 250
125 250 250 125 125 250 125 0 250 125
500 125 125 375 125 125 250 125 125 125
125 125 0 125 125 500 0 125 375 0
125 250 0 125 125 0 125 0 0 125
500 500 0 375 500 0 250 500 0 125
500 0 0 500 0 500 375 0 375 375
0 250 375 0 125 375 0 0 375 0
500 250 0 375 250 0 250 250 0 125
250 0 0 250 0 500 125 0 375 125
0 250 125 0 125 125 0 0 125 0
500 0 0 375 0 0 250 0 0 125
0 0 0 0 0 </DataArray>
</Points>
<PointData>
<DataArray type="Float64" Name="ux" NumberOfComponents="1" format="ascii">
9.49675e-012 8.06875e-012 5.10409e-018 -8.06871e-012 -9.49675e-012 1.89935e-011 9.26348e-012 7.01795e-016 -9.26384e-012 -1.89935e-011
1.89935e-011 1.13423e-011 -6.34e-016 -1.13433e-011 -1.89935e-011 1.89935e-011 9.2654e-012 1.56293e-015 -9.26383e-012 -1.89935e-011
9.49675e-012 8.06916e-012 6.02486e-016 -8.06852e-012 -9.49675e-012 1.89935e-011 1.32749e-011 1.45661e-015 -1.32738e-011 -1.89935e-011
3.7987e-011 1.44591e-011 -1.94198e-016 -1.44576e-011 -3.7987e-011 3.7987e-011 1.76806e-011 6.00943e-016 -1.76803e-011 -3.7987e-011
3.7987e-011 1.44588e-011 1.33197e-015 -1.44576e-011 -3.7987e-011 1.89935e-011 1.32737e-011 8.46453e-016 -1.32732e-011 -1.89935e-011
1.89935e-011 1.42179e-011 2.00786e-015 -1.42156e-011 -1.89935e-011 3.7987e-011 1.58798e-011 1.63249e-015 -1.58785e-011 -3.7987e-011
3.7987e-011 1.93485e-011 8.33461e-016 -1.93477e-011 -3.7987e-011 3.7987e-011 1.58798e-011 -4.90286e-017 -1.58793e-011 -3.7987e-011
1.89935e-011 1.42167e-011 -2.21879e-016 -1.4216e-011 -1.89935e-011 1.89935e-011 1.37995e-011 1.04597e-015 -1.37982e-011 -1.89935e-011
3.7987e-011 1.53667e-011 6.523e-016 -1.53658e-011 -3.7987e-011 3.7987e-011 1.88426e-011 -6.96746e-017 -1.88428e-011 -3.7987e-011
3.7987e-011 1.53669e-011 4.81109e-016 -1.53663e-011 -3.7987e-011 1.89935e-011 1.37987e-011 -1.22784e-016 -1.37984e-011 -1.89935e-011
1.89935e-011 1.36243e-011 -1.58714e-016 -1.36234e-011 -1.89935e-011 3.7987e-011 1.51881e-011 1.28264e-015 -1.51881e-011 -3.7987e-011
3.7987e-011 1.86523e-011 -6.76159e-016 -1.86524e-011 -3.7987e-011 3.7987e-011 1.51888e-011 2.03563e-016 -1.51883e-011 -3.7987e-011
1.89935e-011 1.36242e-011 5.95563e-016 -1.36238e-011 -1.89935e-011 1.89935e-011 1.35775e-011 5.6904e-017 -1.35771e-011 -1.89935e-011
3.7987e-011 1.51421e-011 -2.32229e-016 -1.51415e-011 -3.7987e-011 3.7987e-011 1.86053e-011 2.45773e-016 -1.86052e-011 -3.7987e-011
3.7987e-011 1.51418e-011 8.85018e-016 -1.51407e-011 -3.7987e-011 1.89935e-011 1.35786e-011 4.70659e-016 -1.35769e-011 -1.89935e-011
1.89935e-011 1.35668e-011 2.80066e-016 -1.35663e-011 -1.89935e-011 3.7987e-011 1.51303e-011 6.08655e-017 -1.51301e-011 -3.7987e-011
3.7987e-011 1.8594e-011 2.65159e-016 -1.85938e-011 -3.7987e-011 3.7987e-011 1.51309e-011 4.45665e-016 -1.51297e-011 -3.7987e-011
1.89935e-011 1.3566e-011 7.1476e-016 -1.3566e-011 -1.89935e-011 1.89935e-011 1.35646e-011 -9.77465e-017 -1.35647e-011 -1.89935e-011
3.7987e-011 1.5129e-011 4.03094e-016 -1.51289e-011 -3.7987e-011 3.7987e-011 1.85922e-011 -2.74484e-017 -1.85916e-011 -3.7987e-011
3.7987e-011 1.51286e-011 5.45204e-016 -1.5128e-011 -3.7987e-011 1.89935e-011 1.35651e-011 1.5001e-016 -1.35643e-011 -1.89935e-011
1.89935e-011 1.35642e-011 -8.65002e-017 -1.35647e-011 -1.89935e-011 3.7987e-011 1.51299e-011 -1.7022e-016 -1.51299e-011 -3.7987e-011
3.7987e-011 1.85933e-011 1.49738e-016 -1.85932e-011 -3.7987e-011 3.7987e-011 1.513e-011 -3.26015e-016 -1.51301e-011 -3.7987e-011
1.89935e-011 1.35642e-011 -1.53272e-016 -1.35646e-011 -1.89935e-011 1.89935e-011 1.3543e-011 2.84009e-016 -1.35428e-011 -1.89935e-011
3.7987e-011 1.51071e-011 2.91886e-016 -1.51073e-011 -3.7987e-011 3.7987e-011 1.85931e-011 -2.36355e-016 -1.85933e-011 -3.7987e-011
3.7987e-011 1.51072e-011 -1.14623e-016 -1.51076e-011 -3.7987e-011 1.89935e-011 1.35427e-011 -4.02593e-016 -1.35429e-011 -1.89935e-011
1.89935e-011 1.31268e-011 -9.94362e-017 -1.31267e-011 -1.89935e-011 3.7987e-011 1.48452e-011 -1.32878e-016 -1.48452e-011 -3.7987e-011
3.7987e-011 1.82225e-011 -1.00522e-016 -1.82226e-011 -3.7987e-011 3.7987e-011 1.48455e-011 -1.26631e-016 -1.48454e-011 -3.7987e-011
1.89935e-011 1.31266e-011 -1.88352e-017 -1.31269e-011 -1.89935e-011 1.89935e-011 9.99879e-012 -1.26282e-016 -9.99888e-012 -1.89935e-011
3.7987e-011 1.01001e-011 -1.7774e-017 -1.01e-011 -3.7987e-011 3.7987e-011 1.36165e-011 1.75655e-016 -1.36165e-011 -3.7987e-011
3.7987e-011 1.01002e-011 7.2631e-017 -1.01001e-011 -3.7987e-011 1.89935e-011 9.99888e-012 1.2099e-016 -9.99882e-012 -1.89935e-011
9.49675e-012 2.88179e-022 -4.81637e-028 -2.8818e-022 -9.49675e-012 1.89935e-011 6.72211e-022 5.20422e-027 -6.72213e-022 -1.89935e-011
1.89935e-011 7.97438e-022 6.40879e-027 -7.97438e-022 -1.89935e-011 1.89935e-011 6.72224e-022 6.64824e-027 -6.72217e-022 -1.89935e-011
9.49675e-012 2.88182e-022 3.39561e-027 -2.88182e-022 -9.49675e-012 </DataArray>
<DataArray type="Float64" Name="uy" NumberOfComponents="1" format="ascii">
9.49675e-012 1.89935e-011 1.89935e-011 1.89935e-011 9.49675e-012 8.06541e-012 9.25899e-012 1.13416e-011 9.26096e-012 8.06797e-012
-5.60327e-015 -6.5483e-015 -3.69602e-015 -3.18525e-015 -5.08835e-015 -8.07435e-012 -9.26904e-012 -1.1345e-011 -9.26691e-012 -8.0745e-012
-9.49675e-012 -1.89935e-011 -1.89935e-011 -1.89935e-011 -9.49675e-012 1.89935e-011 3.7987e-011 3.7987e-011 3.7987e-011 1.89935e-011
1.32748e-011 1.44582e-011 1.76804e-011 1.4461e-011 1.32747e-011 4.70112e-017 1.38504e-015 2.31467e-015 1.66288e-015 2.77096e-015
-1.32728e-011 -1.44557e-011 -1.76789e-011 -1.44575e-011 -1.32727e-011 -1.89935e-011 -3.7987e-011 -3.7987e-011 -3.7987e-011 -1.89935e-011
1.89935e-011 3.7987e-011 3.7987e-011 3.7987e-011 1.89935e-011 1.42171e-011 1.58832e-011 1.935e-011 1.5882e-011 1.42195e-011
2.41603e-015 2.68471e-015 4.9845e-015 3.92536e-015 3.65849e-015 -1.42131e-011 -1.5878e-011 -1.93449e-011 -1.58766e-011 -1.42133e-011
-1.89935e-011 -3.7987e-011 -3.7987e-011 -3.7987e-011 -1.89935e-011 1.89935e-011 3.7987e-011 3.7987e-011 3.7987e-011 1.89935e-011
1.37999e-011 1.53666e-011 1.88444e-011 1.53683e-011 1.37995e-011 1.3361e-015 1.95866e-015 2.00055e-015 2.39786e-015 2.50826e-015
-1.37972e-011 -1.53643e-011 -1.8842e-011 -1.53643e-011 -1.37971e-011 -1.89935e-011 -3.7987e-011 -3.7987e-011 -3.7987e-011 -1.89935e-011
1.89935e-011 3.7987e-011 3.7987e-011 3.7987e-011 1.89935e-011 1.36233e-011 1.51888e-011 1.86528e-011 1.519e-011 1.36252e-011
-9.85869e-017 1.98476e-016 1.23604e-015 1.3996e-015 1.32016e-015 -1.3624e-011 -1.51886e-011 -1.86512e-011 -1.51874e-011 -1.36229e-011
-1.89935e-011 -3.7987e-011 -3.7987e-011 -3.7987e-011 -1.89935e-011 1.89935e-011 3.7987e-011 3.7987e-011 3.7987e-011 1.89935e-011
1.35768e-011 1.51411e-011 1.86057e-011 1.51411e-011 1.35778e-011 -2.59948e-016 -9.72235e-016 6.29711e-016 1.18934e-016 6.79309e-016
-1.35773e-011 -1.5142e-011 -1.86055e-011 -1.51415e-011 -1.35775e-011 -1.89935e-011 -3.7987e-011 -3.7987e-011 -3.7987e-011 -1.89935e-011
1.89935e-011 3.7987e-011 3.7987e-011 3.7987e-011 1.89935e-011 1.35659e-011 1.51307e-011 1.85935e-011 1.51313e-011 1.35661e-011
4.4441e-017 -2.25484e-016 7.91411e-017 1.28535e-016 3.86223e-017 -1.35667e-011 -1.51308e-011 -1.85936e-011 -1.51308e-011 -1.35661e-011
-1.89935e-011 -3.7987e-011 -3.7987e-011 -3.7987e-011 -1.89935e-011 1.89935e-011 3.7987e-011 3.7987e-011 3.7987e-011 1.89935e-011
1.35644e-011 1.5129e-011 1.85922e-011 1.51287e-011 1.3565e-011 -6.30524e-016 -4.24823e-017 3.20642e-016 6.60911e-016 2.69474e-016
-1.3564e-011 -1.51289e-011 -1.85924e-011 -1.51286e-011 -1.35646e-011 -1.89935e-011 -3.7987e-011 -3.7987e-011 -3.7987e-011 -1.89935e-011
1.89935e-011 3.7987e-011 3.7987e-011 3.7987e-011 1.89935e-011 1.35642e-011 1.51301e-011 1.85932e-011 1.51296e-011 1.35641e-011
-1.6119e-016 9.25743e-017 -4.09223e-016 -6.75969e-016 -4.10972e-016 -1.35646e-011 -1.51303e-011 -1.85933e-011 -1.51306e-011 -1.35647e-011
-1.89935e-011 -3.7987e-011 -3.7987e-011 -3.7987e-011 -1.89935e-011 1.89935e-011 3.7987e-011 3.7987e-011 3.7987e-011 1.89935e-011
1.35426e-011 1.51072e-011 1.85924e-011 1.51072e-011 1.35426e-011 -1.33029e-016 -3.71241e-016 -1.03012e-016 -4.82536e-016 -3.17311e-016
-1.35425e-011 -1.51074e-011 -1.85937e-011 -1.51076e-011 -1.35427e-011 -1.89935e-011 -3.7987e-011 -3.7987e-011 -3.7987e-011 -1.89935e-011
1.89935e-011 3.7987e-011 3.7987e-011 3.7987e-011 1.89935e-011 1.31267e-011 1.4845e-011 1.82224e-011 1.48451e-011 1.31267e-011
-2.95379e-016 -9.5427e-018 -3.14664e-016 -1.81803e-016 -2.7176e-017 -1.31268e-011 -1.48454e-011 -1.82226e-011 -1.48456e-011 -1.31267e-011
-1.89935e-011 -3.7987e-011 -3.7987e-011 -3.7987e-011 -1.89935e-011 1.89935e-011 3.7987e-011 3.7987e-011 3.7987e-011 1.89935e-011
9.99869e-012 1.00999e-011 1.36166e-011 1.01001e-011 9.99888e-012 -2.84713e-016 1.30131e-016 1.68485e-016 6.96157e-018 5.38699e-017
-9.99894e-012 -1.00999e-011 -1.36164e-011 -1.01e-011 -9.99896e-012 -1.89935e-011 -3.7987e-011 -3.7987e-011 -3.7987e-011 -1.89935e-011
9.49675e-012 1.89935e-011 1.89935e-011 1.89935e-011 9.49675e-012 2.88177e-022 6.72213e-022 7.9744e-022 6.72221e-022 2.88182e-022
-1.79464e-027 7.91747e-028 9.66704e-027 1.19251e-026 3.55687e-027 -2.88183e-022 -6.72206e-022 -7.9743e-022 -6.72212e-022 -2.88177e-022
-9.49675e-012 -1.89935e-011 -1.89935e-011 -1.89935e-011 -9.49675e-012 </DataArray>
<DataArray type="Float64" Name="uz" NumberOfComponents="1" format="ascii">
-14.8571 -14.8571 -14.8571 -14.8571 -14.8571 -14.8571 -14.8571 -14.8571 -14.8571 -14.8571
-14.8571 -14.8571 -14.8571 -14.8571 -14.8571 -14.8571 -14.8571 -14.8571 -14.8571 -14.8571
-14.8571 -14.8571 -14.8571 -14.8571 -14.8571 -13.619 -13.619 -13.619 -13.619 -13.619
-13.619 -13.619 -13.619 -13.619 -13.619 -13.619 -13.619 -13.619 -13.619 -13.619
-13.619 -13.619 -13.619 -13.619 -13.619 -13.619 -13.619 -13.619 -13.619 -13.619
-12.381 -12.381 -12.381 -12.381 -12.381 -12.381 -12.381 -12.381 -12.381 -12.381
-12.381 -12.381 -12.381 -12.381 -12.381 -12.381 -12.381 -12.381 -12.381 -12.381
-12.381 -12.381 -12.381 -12.381 -12.381 -11.1429 -11.1429 -11.1429 -11.1429 -11.1429
-11.1429 -11.1429 -11.1429 -11.1429 -11.1429 -11.1429 -11.1429 -11.1429 -11.1429 -11.1429
-11.1429 -11.1429 -11.1429 -11.1429 -11.1429 -11.1429 -11.1429 -11.1429 -11.1429 -11.1429
-9.90476 -9.90476 -9.90476 -9.90476 -9.90476 -9.90476 -9.90476 -9.90476 -9.90476 -9.90476
-9.90476 -9.90476 -9.90476 -9.90476 -9.90476 -9.90476 -9.90476 -9.90476 -9.90476 -9.90476
-9.90476 -9.90476 -9.90476 -9.90476 -9.90476 -8.66667 -8.66667 -8.66667 -8.66667 -8.66667
-8.66667 -8.66667 -8.66667 -8.66667 -8.66667 -8.66667 -8.66667 -8.66667 -8.66667 -8.66667
-8.66667 -8.66667 -8.66667 -8.66667 -8.66667 -8.66667 -8.66667 -8.66667 -8.66667 -8.66667
-7.42857 -7.42857 -7.42857 -7.42857 -7.42857 -7.42857 -7.42857 -7.42857 -7.42857 -7.42857
-7.42857 -7.42857 -7.42857 -7.42857 -7.42857 -7.42857 -7.42857 -7.42857 -7.42857 -7.42857
-7.42857 -7.42857 -7.42857 -7.42857 -7.42857 -6.19048 -6.19048 -6.19048 -6.19048 -6.19048
-6.19048 -6.19048 -6.19048 -6.19048 -6.19048 -6.19048 -6.19048 -6.19048 -6.19048 -6.19048
-6.19048 -6.19048 -6.19048 -6.19048 -6.19048 -6.19048 -6.19048 -6.19048 -6.19048 -6.19048
-4.95238 -4.95238 -4.95238 -4.95238 -4.95238 -4.95238 -4.95238 -4.95238 -4.95238 -4.95238
-4.95238 -4.95238 -4.95238 -4.95238 -4.95238 -4.95238 -4.95238 -4.95238 -4.95238 -4.95238
-4.95238 -4.95238 -4.95238 -4.95238 -4.95238 -3.71429 -3.71429 -3.71429 -3.71429 -3.71429
-3.71429 -3.71429 -3.71429 -3.71429 -3.71429 -3.71429 -3.71429 -3.71429 -3.71429 -3.71429
-3.71429 -3.71429 -3.71429 -3.71429 -3.71429 -3.71429 -3.71429 -3.71429 -3.71429 -3.71429
-2.47619 -2.47619 -2.47619 -2.47619 -2.47619 -2.47619 -2.47619 -2.47619 -2.47619 -2.47619
-2.47619 -2.47619 -2.47619 -2.47619 -2.47619 -2.47619 -2.47619 -2.47619 -2.47619 -2.47619
-2.47619 -2.47619 -2.47619 -2.47619 -2.47619 -1.2381 -1.2381 -1.2381 -1.2381 -1.2381
-1.2381 -1.2381 -1.2381 -1.2381 -1.2381 -1.2381 -1.2381 -1.2381 -1.2381 -1.2381
-1.2381 -1.2381 -1.2381 -1.2381 -1.2381 -1.2381 -1.2381 -1.2381 -1.2381 -1.2381
-2.21591e-011 -4.43182e-011 -4.43182e-011 -4.43182e-011 -2.21591e-011 -4.43182e-011 -8.86364e-011 -8.86364e-011 -8.86364e-011 -4.43182e-011
-4.43182e-011 -8.86364e-011 -8.86364e-011 -8.86364e-011 -4.43182e-011 -4.43182e-011 -8.86364e-011 -8.86364e-011 -8.86364e-011 -4.43182e-011
-2.21591e-011 -4.43182e-011 -4.43182e-011 -4.43182e-011 -2.21591e-011 </DataArray>
</PointData>
<Cells>
<DataArray type="Int64" Name="connectivity" format="ascii">
324 323 318 319 299 298 293 294 299 298
293 294 274 273 268 269 274 273 268 269
249 248 243 244 249 248 243 244 224 223
218 219 224 223 218 219 199 198 193 194
199 198 193 194 174 173 168 169 174 173
168 169 149 148 143 144 149 148 143 144
124 123 118 119 124 123 118 119 99 98
93 94 99 98 93 94 74 73 68 69
74 73 68 69 49 48 43 44 49 48
43 44 24 23 18 19 306 305 300 301
281 280 275 276 281 280 275 276 256 255
250 251 256 255 250 251 231 230 225 226
231 230 225 226 206 205 200 201 206 205
200 201 181 180 175 176 181 180 175 176
156 155 150 151 156 155 150 151 131 130
125 126 131 130 125 126 106 105 100 101
106 105 100 101 81 80 75 76 81 80
75 76 56 55 50 51 56 55 50 51
31 30 25 26 31 30 25 26 6 5
0 1 311 310 305 306 286 285 280 281
286 285 280 281 261 260 255 256 261 260
255 256 236 235 230 231 236 235 230 231
211 210 205 206 211 210 205 206 186 185
180 181 186 185 180 181 161 160 155 156
161 160 155 156 136 135 130 131 136 135
130 131 111 110 105 106 111 110 105 106
86 85 80 81 86 85 80 81 61 60
55 56 61 60 55 56 36 35 30 31
36 35 30 31 11 10 5 6 316 315
310 311 291 290 285 286 291 290 285 286
266 265 260 261 266 265 260 261 241 240
235 236 241 240 235 236 216 215 210 211
216 215 210 211 191 190 185 186 191 190
185 186 166 165 160 161 166 165 160 161
141 140 135 136 141 140 135 136 116 115
110 111 116 115 110 111 91 90 85 86
91 90 85 86 66 65 60 61 66 65
60 61 41 40 35 36 41 40 35 36
16 15 10 11 321 320 315 316 296 295
290 291 296 295 290 291 271 270 265 266
271 270 265 266 246 245 240 241 246 245
240 241 221 220 215 216 221 220 215 216
196 195 190 191 196 195 190 191 171 170
165 166 171 170 165 166 146 145 140 141
146 145 140 141 121 120 115 116 121 120
115 116 96 95 90 91 96 95 90 91
71 70 65 66 71 70 65 66 46 45
40 41 46 45 40 41 21 20 15 16
307 306 301 302 282 281 276 277 282 281
276 277 257 256 251 252 257 256 251 252
232 231 226 227 232 231 226 227 207 206
201 202 207 206 201 202 182 181 176 177
182 181 176 177 157 156 151 152 157 156
151 152 132 131 126 127 132 131 126 127
107 106 101 102 107 106 101 102 82 81
76 77 82 81 76 77 57 56 51 52
57 56 51 52 32 31 26 27 32 31
26 27 7 6 1 2 312 311 306 307
287 286 281 282 287 286 281 282 262 261
256 257 262 261 256 257 237 236 231 232
237 236 231 232 212 211 206 207 212 211
206 207 187 186 181 182 187 186 181 182
162 161 156 157 162 161 156 157 137 136
131 132 137 136 131 132 112 111 106 107
112 111 106 107 87 86 81 82 87 86
81 82 62 61 56 57 62 61 56 57
37 36 31 32 37 36 31 32 12 11
6 7 317 316 311 312 292 291 286 287
292 291 286 287 267 266 261 262 267 266
261 262 242 241 236 237 242 241 236 237
217 216 211 212 217 216 211 212 192 191
186 187 192 191 186 187 167 166 161 162
167 166 161 162 142 141 136 137 142 141
136 137 117 116 111 112 117 116 111 112
92 91 86 87 92 91 86 87 67 66
61 62 67 66 61 62 42 41 36 37
42 41 36 37 17 16 11 12 322 321
316 317 297 296 291 292 297 296 291 292
272 271 266 267 272 271 266 267 247 246
241 242 247 246 241 242 222 221 216 217
222 221 216 217 197 196 191 192 197 196
191 192 172 171 166 167 172 171 166 167
147 146 141 142 147 146 141 142 122 121
116 117 122 121 116 117 97 96 91 92
97 96 91 92 72 71 66 67 72 71
66 67 47 46 41 42 47 46 41 42
22 21 16 17 308 307 302 303 283 282
277 278 283 282 277 278 258 257 252 253
258 257 252 253 233 232 227 228 233 232
227 228 208 207 202 203 208 207 202 203
183 182 177 178 183 182 177 178 158 157
152 153 158 157 152 153 133 132 127 128
133 132 127 128 108 107 102 103 108 107
102 103 83 82 77 78 83 82 77 78
58 57 52 53 58 57 52 53 33 32
27 28 33 32 27 28 8 7 2 3
313 312 307 308 288 287 282 283 288 287
282 283 263 262 257 258 263 262 257 258
238 237 232 233 238 237 232 233 213 212
207 208 213 212 207 208 188 187 182 183
188 187 182 183 163 162 157 158 163 162
157 158 138 137 132 133 138 137 132 133
113 112 107 108 113 112 107 108 88 87
82 83 88 87 82 83 63 62 57 58
63 62 57 58 38 37 32 33 38 37
32 33 13 12 7 8 318 317 312 313
293 292 287 288 293 292 287 288 268 267
262 263 268 267 262 263 243 242 237 238
243 242 237 238 218 217 212 213 218 217
212 213 193 192 187 188 193 192 187 188
168 167 162 163 168 167 162 163 143 142
137 138 143 142 137 138 118 117 112 113
118 117 112 113 93 92 87 88 93 92
87 88 68 67 62 63 68 67 62 63
43 42 37 38 43 42 37 38 18 17
12 13 323 322 317 318 298 297 292 293
298 297 292 293 273 272 267 268 273 272
267 268 248 247 242 243 248 247 242 243
223 222 217 218 223 222 217 218 198 197
192 193 198 197 192 193 173 172 167 168
173 172 167 168 148 147 142 143 148 147
142 143 123 122 117 118 123 122 117 118
98 97 92 93 98 97 92 93 73 72
67 68 73 72 67 68 48 47 42 43
48 47 42 43 23 22 17 18 309 308
303 304 284 283 278 279 284 283 278 279
259 258 253 254 259 258 253 254 234 233
228 229 234 233 228 229 209 208 203 204
209 208 203 204 184 183 178 179 184 183
178 179 159 158 153 154 159 158 153 154
134 133 128 129 134 133 128 129 109 108
103 104 109 108 103 104 84 83 78 79
84 83 78 79 59 58 53 54 59 58
53 54 34 33 28 29 34 33 28 29
9 8 3 4 314 313 308 309 289 288
283 284 289 288 283 284 264 263 258 259
264 263 258 259 239 238 233 234 239 238
233 234 214 213 208 209 214 213 208 209
189 188 183 184 189 188 183 184 164 163
158 159 164 163 158 159 139 138 133 134
139 138 133 134 114 113 108 109 114 113
108 109 89 88 83 84 89 88 83 84
64 63 58 59 64 63 58 59 39 38
33 34 39 38 33 34 14 13 8 9
319 318 313 314 294 293 288 289 294 293
288 289 269 268 263 264 269 268 263 264
244 243 238 239 244 243 238 239 219 218
213 214 219 218 213 214 194 193 188 189
194 193 188 189 169 168 163 164 169 168
163 164 144 143 138 139 144 143 138 139
119 118 113 114 119 118 113 114 94 93
88 89 94 93 88 89 69 68 63 64
69 68 63 64 44 43 38 39 44 43
38 39 19 18 13 14 </DataArray>
<DataArray type="Int8" Name="types" format="ascii" RangeMin="12" RangeMax="12">
12 12 12 12 12 12 12 12 12 12
12 12 12 12 12 12 12 12 12 12
12 12 12 12 12 12 12 12 12 12
12 12 12 12 12 12 12 12 12 12
12 12 12 12 12 12 12 12 12 12
12 12 12 12 12 12 12 12 12 12
12 12 12 12 12 12 12 12 12 12
12 12 12 12 12 12 12 12 12 12
12 12 12 12 12 12 12 12 12 12
12 12 12 12 12 12 12 12 12 12
12 12 12 12 12 12 12 12 12 12
12 12 12 12 12 12 12 12 12 12
12 12 12 12 12 12 12 12 12 12
12 12 12 12 12 12 12 12 12 12
12 12 12 12 12 12 12 12 12 12
12 12 12 12 12 12 12 12 12 12
12 12 12 12 12 12 12 12 12 12
12 12 12 12 12 12 12 12 12 12
12 12 12 12 12 12 12 12 12 12
12 12 </DataArray>
<DataArray type="Int64" Name="offsets" format="ascii" RangeMin="8" RangeMax="1536">
8 16 24 32 40 48 56 64 72 80
88 96 104 112 120 128 136 144 152 160
168 176 184 192 200 208 216 224 232 240
248 256 264 272 280 288 296 304 312 320
328 336 344 352 360 368 376 384 392 400
408 416 424 432 440 448 456 464 472 480
488 496 504 512 520 528 536 544 552 560
568 576 584 592 600 608 616 624 632 640
648 656 664 672 680 688 696 704 712 720
728 736 744 752 760 768 776 784 792 800
808 816 824 832 840 848 856 864 872 880
888 896 904 912 920 928 936 944 952 960
968 976 984 992 1000 1008 1016 1024 1032 1040
1048 1056 1064 1072 1080 1088 1096 1104 1112 1120
1128 1136 1144 1152 1160 1168 1176 1184 1192 1200
1208 1216 1224 1232 1240 1248 1256 1264 1272 1280
1288 1296 1304 1312 1320 1328 1336 1344 1352 1360
1368 1376 1384 1392 1400 1408 1416 1424 1432 1440
1448 1456 1464 1472 1480 1488 1496 1504 1512 1520
1528 1536 </DataArray>
</Cells>
<CellData>
<DataArray type="Float64" Name="sx" NumberOfComponents="1" format="ascii">
-0.0857143 -0.0857143 -0.0857143 -0.0857143 -0.0857143 -0.0857143 -0.0857143 -0.0857143 -0.0857143 -0.0857143
-0.0857143 -0.0857143 -0.0857143 -0.0857143 -0.0857143 -0.0857143 -0.0857143 -0.0857143 -0.0857143 -0.0857143
-0.0857143 -0.0857143 -0.0857143 -0.0857143 -0.0857143 -0.0857143 -0.0857143 -0.0857143 -0.0857143 -0.0857143
-0.0857143 -0.0857143 -0.0857143 -0.0857143 -0.0857143 -0.0857143 -0.0857143 -0.0857143 -0.0857143 -0.0857143
-0.0857143 -0.0857143 -0.0857143 -0.0857143 -0.0857143 -0.0857143 -0.0857143 -0.0857143 -0.0857143 -0.0857143
-0.0857143 -0.0857143 -0.0857143 -0.0857143 -0.0857143 -0.0857143 -0.0857143 -0.0857143 -0.0857143 -0.0857143
-0.0857143 -0.0857143 -0.0857143 -0.0857143 -0.0857143 -0.0857143 -0.0857143 -0.0857143 -0.0857143 -0.0857143
-0.0857143 -0.0857143 -0.0857143 -0.0857143 -0.0857143 -0.0857143 -0.0857143 -0.0857143 -0.0857143 -0.0857143
-0.0857143 -0.0857143 -0.0857143 -0.0857143 -0.0857143 -0.0857143 -0.0857143 -0.0857143 -0.0857143 -0.0857143
-0.0857143 -0.0857143 -0.0857143 -0.0857143 -0.0857143 -0.0857143 -0.0857143 -0.0857143 -0.0857143 -0.0857143
-0.0857143 -0.0857143 -0.0857143 -0.0857143 -0.0857143 -0.0857143 -0.0857143 -0.0857143 -0.0857143 -0.0857143
-0.0857143 -0.0857143 -0.0857143 -0.0857143 -0.0857143 -0.0857143 -0.0857143 -0.0857143 -0.0857143 -0.0857143
-0.0857143 -0.0857143 -0.0857143 -0.0857143 -0.0857143 -0.0857143 -0.0857143 -0.0857143 -0.0857143 -0.0857143
-0.0857143 -0.0857143 -0.0857143 -0.0857143 -0.0857143 -0.0857143 -0.0857143 -0.0857143 -0.0857143 -0.0857143
-0.0857143 -0.0857143 -0.0857143 -0.0857143 -0.0857143 -0.0857143 -0.0857143 -0.0857143 -0.0857143 -0.0857143
-0.0857143 -0.0857143 -0.0857143 -0.0857143 -0.0857143 -0.0857143 -0.0857143 -0.0857143 -0.0857143 -0.0857143
-0.0857143 -0.0857143 -0.0857143 -0.0857143 -0.0857143 -0.0857143 -0.0857143 -0.0857143 -0.0857143 -0.0857143
-0.0857143 -0.0857143 -0.0857143 -0.0857143 -0.0857143 -0.0857143 -0.0857143 -0.0857143 -0.0857143 -0.0857143
-0.0857143 -0.0857143 -0.0857143 -0.0857143 -0.0857143 -0.0857143 -0.0857143 -0.0857143 -0.0857143 -0.0857143
-0.0857143 -0.0857143 </DataArray>
<DataArray type="Float64" Name="sy" NumberOfComponents="1" format="ascii">
-0.0857143 -0.0857143 -0.0857143 -0.0857143 -0.0857143 -0.0857143 -0.0857143 -0.0857143 -0.0857143 -0.0857143
-0.0857143 -0.0857143 -0.0857143 -0.0857143 -0.0857143 -0.0857143 -0.0857143 -0.0857143 -0.0857143 -0.0857143
-0.0857143 -0.0857143 -0.0857143 -0.0857143 -0.0857143 -0.0857143 -0.0857143 -0.0857143 -0.0857143 -0.0857143
-0.0857143 -0.0857143 -0.0857143 -0.0857143 -0.0857143 -0.0857143 -0.0857143 -0.0857143 -0.0857143 -0.0857143
-0.0857143 -0.0857143 -0.0857143 -0.0857143 -0.0857143 -0.0857143 -0.0857143 -0.0857143 -0.0857143 -0.0857143
-0.0857143 -0.0857143 -0.0857143 -0.0857143 -0.0857143 -0.0857143 -0.0857143 -0.0857143 -0.0857143 -0.0857143
-0.0857143 -0.0857143 -0.0857143 -0.0857143 -0.0857143 -0.0857143 -0.0857143 -0.0857143 -0.0857143 -0.0857143
-0.0857143 -0.0857143 -0.0857143 -0.0857143 -0.0857143 -0.0857143 -0.0857143 -0.0857143 -0.0857143 -0.0857143
-0.0857143 -0.0857143 -0.0857143 -0.0857143 -0.0857143 -0.0857143 -0.0857143 -0.0857143 -0.0857143 -0.0857143
-0.0857143 -0.0857143 -0.0857143 -0.0857143 -0.0857143 -0.0857143 -0.0857143 -0.0857143 -0.0857143 -0.0857143
-0.0857143 -0.0857143 -0.0857143 -0.0857143 -0.0857143 -0.0857143 -0.0857143 -0.0857143 -0.0857143 -0.0857143
-0.0857143 -0.0857143 -0.0857143 -0.0857143 -0.0857143 -0.0857143 -0.0857143 -0.0857143 -0.0857143 -0.0857143
-0.0857143 -0.0857143 -0.0857143 -0.0857143 -0.0857143 -0.0857143 -0.0857143 -0.0857143 -0.0857143 -0.0857143
-0.0857143 -0.0857143 -0.0857143 -0.0857143 -0.0857143 -0.0857143 -0.0857143 -0.0857143 -0.0857143 -0.0857143
-0.0857143 -0.0857143 -0.0857143 -0.0857143 -0.0857143 -0.0857143 -0.0857143 -0.0857143 -0.0857143 -0.0857143
-0.0857143 -0.0857143 -0.0857143 -0.0857143 -0.0857143 -0.0857143 -0.0857143 -0.0857143 -0.0857143 -0.0857143
-0.0857143 -0.0857143 -0.0857143 -0.0857143 -0.0857143 -0.0857143 -0.0857143 -0.0857143 -0.0857143 -0.0857143
-0.0857143 -0.0857143 -0.0857143 -0.0857143 -0.0857143 -0.0857143 -0.0857143 -0.0857143 -0.0857143 -0.0857143
-0.0857143 -0.0857143 -0.0857143 -0.0857143 -0.0857143 -0.0857143 -0.0857143 -0.0857143 -0.0857143 -0.0857143
-0.0857143 -0.0857143 </DataArray>
<DataArray type="Float64" Name="sz" NumberOfComponents="1" format="ascii">
-0.2 -0.2 -0.2 -0.2 -0.2 -0.2 -0.2 -0.2 -0.2 -0.2
-0.2 -0.2 -0.2 -0.2 -0.2 -0.2 -0.2 -0.2 -0.2 -0.2
-0.2 -0.2 -0.2 -0.2 -0.2 -0.2 -0.2 -0.2 -0.2 -0.2
-0.2 -0.2 -0.2 -0.2 -0.2 -0.2 -0.2 -0.2 -0.2 -0.2
-0.2 -0.2 -0.2 -0.2 -0.2 -0.2 -0.2 -0.2 -0.2 -0.2
-0.2 -0.2 -0.2 -0.2 -0.2 -0.2 -0.2 -0.2 -0.2 -0.2
-0.2 -0.2 -0.2 -0.2 -0.2 -0.2 -0.2 -0.2 -0.2 -0.2
-0.2 -0.2 -0.2 -0.2 -0.2 -0.2 -0.2 -0.2 -0.2 -0.2
-0.2 -0.2 -0.2 -0.2 -0.2 -0.2 -0.2 -0.2 -0.2 -0.2
-0.2 -0.2 -0.2 -0.2 -0.2 -0.2 -0.2 -0.2 -0.2 -0.2
-0.2 -0.2 -0.2 -0.2 -0.2 -0.2 -0.2 -0.2 -0.2 -0.2
-0.2 -0.2 -0.2 -0.2 -0.2 -0.2 -0.2 -0.2 -0.2 -0.2
-0.2 -0.2 -0.2 -0.2 -0.2 -0.2 -0.2 -0.2 -0.2 -0.2
-0.2 -0.2 -0.2 -0.2 -0.2 -0.2 -0.2 -0.2 -0.2 -0.2
-0.2 -0.2 -0.2 -0.2 -0.2 -0.2 -0.2 -0.2 -0.2 -0.2
-0.2 -0.2 -0.2 -0.2 -0.2 -0.2 -0.2 -0.2 -0.2 -0.2
-0.2 -0.2 -0.2 -0.2 -0.2 -0.2 -0.2 -0.2 -0.2 -0.2
-0.2 -0.2 -0.2 -0.2 -0.2 -0.2 -0.2 -0.2 -0.2 -0.2
-0.2 -0.2 -0.2 -0.2 -0.2 -0.2 -0.2 -0.2 -0.2 -0.2
-0.2 -0.2 </DataArray>
<DataArray type="Float64" Name="txy" NumberOfComponents="1" format="ascii">
-6.59802e-013 -9.1862e-013 -9.52397e-013 -9.48869e-013 -9.48846e-013 -9.48811e-013 -9.48812e-013 -9.48817e-013 -9.489e-013 -9.5118e-013
-9.42343e-013 -7.12355e-013 -6.59805e-013 -9.18615e-013 -9.52378e-013 -9.48858e-013 -9.4886e-013 -9.48823e-013 -9.48823e-013 -9.48834e-013
-9.48892e-013 -9.51184e-013 -9.42343e-013 -7.12344e-013 -4.1747e-014 -1.00545e-013 -1.17072e-013 -1.16307e-013 -1.16052e-013 -1.16037e-013
-1.16018e-013 -1.16037e-013 -1.16229e-013 -1.17441e-013 -1.10092e-013 -8.85892e-014 4.17332e-014 1.00526e-013 1.17073e-013 1.16304e-013
1.16037e-013 1.16024e-013 1.16037e-013 1.16039e-013 1.16191e-013 1.17408e-013 1.1004e-013 8.85695e-014 6.59802e-013 9.18621e-013
9.52395e-013 9.48864e-013 9.48853e-013 9.48827e-013 9.48821e-013 9.48821e-013 9.48905e-013 9.51198e-013 9.42345e-013 7.12378e-013
-4.17475e-014 -1.00545e-013 -1.17058e-013 -1.16284e-013 -1.1604e-013 -1.1601e-013 -1.16021e-013 -1.16057e-013 -1.16238e-013 -1.17381e-013
-1.09998e-013 -8.8648e-014 -8.11534e-014 -1.5909e-013 -1.5837e-013 -1.60352e-013 -1.59838e-013 -1.59846e-013 -1.59887e-013 -1.59889e-013