<VTKFile type="UnstructuredGrid" version="1.0">
<UnstructuredGrid>
<FieldData>
<DataArray type="Float64" Name="TIME" NumberOfTuples="1" format="ascii" RangeMin="0" RangeMax="0">
0
</DataArray>
</FieldData>
<Piece NumberOfPoints="2025" NumberOfCells="1536">
<Points>
<DataArray type="Float64" NumberOfComponents="3" format="ascii">
500 500 1500 437.5 500 1500 375 500 1500 312.5
500 1500 250 500 1500 187.5 500 1500 125 500
1500 62.5 500 1500 0 500 1500 500 437.5 1500
437.5 437.5 1500 375 437.5 1500 312.5 437.5 1500 250
437.5 1500 187.5 437.5 1500 125 437.5 1500 62.5 437.5
1500 0 437.5 1500 500 375 1500 437.5 375 1500
375 375 1500 312.5 375 1500 250 375 1500 187.5
375 1500 125 375 1500 62.5 375 1500 0 375
1500 500 312.5 1500 437.5 312.5 1500 375 312.5 1500
312.5 312.5 1500 250 312.5 1500 187.5 312.5 1500 125
312.5 1500 62.5 312.5 1500 0 312.5 1500 500 250
1500 437.5 250 1500 375 250 1500 312.5 250 1500
250 250 1500 187.5 250 1500 125 250 1500 62.5
250 1500 0 250 1500 500 187.5 1500 437.5 187.5
1500 375 187.5 1500 312.5 187.5 1500 250 187.5 1500
187.5 187.5 1500 125 187.5 1500 62.5 187.5 1500 0
187.5 1500 500 125 1500 437.5 125 1500 375 125
1500 312.5 125 1500 250 125 1500 187.5 125 1500
125 125 1500 62.5 125 1500 0 125 1500 500
62.5 1500 437.5 62.5 1500 375 62.5 1500 312.5 62.5
1500 250 62.5 1500 187.5 62.5 1500 125 62.5 1500
62.5 62.5 1500 0 62.5 1500 500 0 1500 437.5
0 1500 375 0 1500 312.5 0 1500 250 0
1500 187.5 0 1500 125 0 1500 62.5 0 1500
0 0 1500 500 500 1437.5 437.5 500 1437.5 375
500 1437.5 312.5 500 1437.5 250 500 1437.5 187.5 500
1437.5 125 500 1437.5 62.5 500 1437.5 0 500 1437.5
500 437.5 1437.5 437.5 437.5 1437.5 375 437.5 1437.5 312.5
437.5 1437.5 250 437.5 1437.5 187.5 437.5 1437.5 125 437.5
1437.5 62.5 437.5 1437.5 0 437.5 1437.5 500 375 1437.5
437.5 375 1437.5 375 375 1437.5 312.5 375 1437.5 250
375 1437.5 187.5 375 1437.5 125 375 1437.5 62.5 375
1437.5 0 375 1437.5 500 312.5 1437.5 437.5 312.5 1437.5
375 312.5 1437.5 312.5 312.5 1437.5 250 312.5 1437.5 187.5
312.5 1437.5 125 312.5 1437.5 62.5 312.5 1437.5 0 312.5
1437.5 500 250 1437.5 437.5 250 1437.5 375 250 1437.5
312.5 250 1437.5 250 250 1437.5 187.5 250 1437.5 125
250 1437.5 62.5 250 1437.5 0 250 1437.5 500 187.5
1437.5 437.5 187.5 1437.5 375 187.5 1437.5 312.5 187.5 1437.5
250 187.5 1437.5 187.5 187.5 1437.5 125 187.5 1437.5 62.5
187.5 1437.5 0 187.5 1437.5 500 125 1437.5 437.5 125
1437.5 375 125 1437.5 312.5 125 1437.5 250 125 1437.5
187.5 125 1437.5 125 125 1437.5 62.5 125 1437.5 0
125 1437.5 500 62.5 1437.5 437.5 62.5 1437.5 375 62.5
1437.5 312.5 62.5 1437.5 250 62.5 1437.5 187.5 62.5 1437.5
125 62.5 1437.5 62.5 62.5 1437.5 0 62.5 1437.5 500
0 1437.5 437.5 0 1437.5 375 0 1437.5 312.5 0
1437.5 250 0 1437.5 187.5 0 1437.5 125 0 1437.5
62.5 0 1437.5 0 0 1437.5 500 500 1375 437.5
500 1375 375 500 1375 312.5 500 1375 250 500
1375 187.5 500 1375 125 500 1375 62.5 500 1375
0 500 1375 500 437.5 1375 437.5 437.5 1375 375
437.5 1375 312.5 437.5 1375 250 437.5 1375 187.5 437.5
1375 125 437.5 1375 62.5 437.5 1375 0 437.5 1375
500 375 1375 437.5 375 1375 375 375 1375 312.5
375 1375 250 375 1375 187.5 375 1375 125 375
1375 62.5 375 1375 0 375 1375 500 312.5 1375
437.5 312.5 1375 375 312.5 1375 312.5 312.5 1375 250
312.5 1375 187.5 312.5 1375 125 312.5 1375 62.5 312.5
1375 0 312.5 1375 500 250 1375 437.5 250 1375
375 250 1375 312.5 250 1375 250 250 1375 187.5
250 1375 125 250 1375 62.5 250 1375 0 250
1375 500 187.5 1375 437.5 187.5 1375 375 187.5 1375
312.5 187.5 1375 250 187.5 1375 187.5 187.5 1375 125
187.5 1375 62.5 187.5 1375 0 187.5 1375 500 125
1375 437.5 125 1375 375 125 1375 312.5 125 1375
250 125 1375 187.5 125 1375 125 125 1375 62.5
125 1375 0 125 1375 500 62.5 1375 437.5 62.5
1375 375 62.5 1375 312.5 62.5 1375 250 62.5 1375
187.5 62.5 1375 125 62.5 1375 62.5 62.5 1375 0
62.5 1375 500 0 1375 437.5 0 1375 375 0
1375 312.5 0 1375 250 0 1375 187.5 0 1375
125 0 1375 62.5 0 1375 0 0 1375 500
500 1312.5 437.5 500 1312.5 375 500 1312.5 312.5 500
1312.5 250 500 1312.5 187.5 500 1312.5 125 500 1312.5
62.5 500 1312.5 0 500 1312.5 500 437.5 1312.5 437.5
437.5 1312.5 375 437.5 1312.5 312.5 437.5 1312.5 250 437.5
1312.5 187.5 437.5 1312.5 125 437.5 1312.5 62.5 437.5 1312.5
0 437.5 1312.5 500 375 1312.5 437.5 375 1312.5 375
375 1312.5 312.5 375 1312.5 250 375 1312.5 187.5 375
1312.5 125 375 1312.5 62.5 375 1312.5 0 375 1312.5
500 312.5 1312.5 437.5 312.5 1312.5 375 312.5 1312.5 312.5
312.5 1312.5 250 312.5 1312.5 187.5 312.5 1312.5 125 312.5
1312.5 62.5 312.5 1312.5 0 312.5 1312.5 500 250 1312.5
437.5 250 1312.5 375 250 1312.5 312.5 250 1312.5 250
250 1312.5 187.5 250 1312.5 125 250 1312.5 62.5 250
1312.5 0 250 1312.5 500 187.5 1312.5 437.5 187.5 1312.5
375 187.5 1312.5 312.5 187.5 1312.5 250 187.5 1312.5 187.5
187.5 1312.5 125 187.5 1312.5 62.5 187.5 1312.5 0 187.5
1312.5 500 125 1312.5 437.5 125 1312.5 375 125 1312.5
312.5 125 1312.5 250 125 1312.5 187.5 125 1312.5 125
125 1312.5 62.5 125 1312.5 0 125 1312.5 500 62.5
1312.5 437.5 62.5 1312.5 375 62.5 1312.5 312.5 62.5 1312.5
250 62.5 1312.5 187.5 62.5 1312.5 125 62.5 1312.5 62.5
62.5 1312.5 0 62.5 1312.5 500 0 1312.5 437.5 0
1312.5 375 0 1312.5 312.5 0 1312.5 250 0 1312.5
187.5 0 1312.5 125 0 1312.5 62.5 0 1312.5 0
0 1312.5 500 500 1250 437.5 500 1250 375 500
1250 312.5 500 1250 250 500 1250 187.5 500 1250
125 500 1250 62.5 500 1250 0 500 1250 500
437.5 1250 437.5 437.5 1250 375 437.5 1250 312.5 437.5
1250 250 437.5 1250 187.5 437.5 1250 125 437.5 1250
62.5 437.5 1250 0 437.5 1250 500 375 1250 437.5
375 1250 375 375 1250 312.5 375 1250 250 375
1250 187.5 375 1250 125 375 1250 62.5 375 1250
0 375 1250 500 312.5 1250 437.5 312.5 1250 375
312.5 1250 312.5 312.5 1250 250 312.5 1250 187.5 312.5
1250 125 312.5 1250 62.5 312.5 1250 0 312.5 1250
500 250 1250 437.5 250 1250 375 250 1250 312.5
250 1250 250 250 1250 187.5 250 1250 125 250
1250 62.5 250 1250 0 250 1250 500 187.5 1250
437.5 187.5 1250 375 187.5 1250 312.5 187.5 1250 250
187.5 1250 187.5 187.5 1250 125 187.5 1250 62.5 187.5
1250 0 187.5 1250 500 125 1250 437.5 125 1250
375 125 1250 312.5 125 1250 250 125 1250 187.5
125 1250 125 125 1250 62.5 125 1250 0 125
1250 500 62.5 1250 437.5 62.5 1250 375 62.5 1250
312.5 62.5 1250 250 62.5 1250 187.5 62.5 1250 125
62.5 1250 62.5 62.5 1250 0 62.5 1250 500 0
1250 437.5 0 1250 375 0 1250 312.5 0 1250
250 0 1250 187.5 0 1250 125 0 1250 62.5
0 1250 0 0 1250 500 500 1187.5 437.5 500
1187.5 375 500 1187.5 312.5 500 1187.5 250 500 1187.5
187.5 500 1187.5 125 500 1187.5 62.5 500 1187.5 0
500 1187.5 500 437.5 1187.5 437.5 437.5 1187.5 375 437.5
1187.5 312.5 437.5 1187.5 250 437.5 1187.5 187.5 437.5 1187.5
125 437.5 1187.5 62.5 437.5 1187.5 0 437.5 1187.5 500
375 1187.5 437.5 375 1187.5 375 375 1187.5 312.5 375
1187.5 250 375 1187.5 187.5 375 1187.5 125 375 1187.5
62.5 375 1187.5 0 375 1187.5 500 312.5 1187.5 437.5
312.5 1187.5 375 312.5 1187.5 312.5 312.5 1187.5 250 312.5
1187.5 187.5 312.5 1187.5 125 312.5 1187.5 62.5 312.5 1187.5
0 312.5 1187.5 500 250 1187.5 437.5 250 1187.5 375
250 1187.5 312.5 250 1187.5 250 250 1187.5 187.5 250
1187.5 125 250 1187.5 62.5 250 1187.5 0 250 1187.5
500 187.5 1187.5 437.5 187.5 1187.5 375 187.5 1187.5 312.5
187.5 1187.5 250 187.5 1187.5 187.5 187.5 1187.5 125 187.5
1187.5 62.5 187.5 1187.5 0 187.5 1187.5 500 125 1187.5
437.5 125 1187.5 375 125 1187.5 312.5 125 1187.5 250
125 1187.5 187.5 125 1187.5 125 125 1187.5 62.5 125
1187.5 0 125 1187.5 500 62.5 1187.5 437.5 62.5 1187.5
375 62.5 1187.5 312.5 62.5 1187.5 250 62.5 1187.5 187.5
62.5 1187.5 125 62.5 1187.5 62.5 62.5 1187.5 0 62.5
1187.5 500 0 1187.5 437.5 0 1187.5 375 0 1187.5
312.5 0 1187.5 250 0 1187.5 187.5 0 1187.5 125
0 1187.5 62.5 0 1187.5 0 0 1187.5 500 500
1125 437.5 500 1125 375 500 1125 312.5 500 1125
250 500 1125 187.5 500 1125 125 500 1125 62.5
500 1125 0 500 1125 500 437.5 1125 437.5 437.5
1125 375 437.5 1125 312.5 437.5 1125 250 437.5 1125
187.5 437.5 1125 125 437.5 1125 62.5 437.5 1125 0
437.5 1125 500 375 1125 437.5 375 1125 375 375
1125 312.5 375 1125 250 375 1125 187.5 375 1125
125 375 1125 62.5 375 1125 0 375 1125 500
312.5 1125 437.5 312.5 1125 375 312.5 1125 312.5 312.5
1125 250 312.5 1125 187.5 312.5 1125 125 312.5 1125
62.5 312.5 1125 0 312.5 1125 500 250 1125 437.5
250 1125 375 250 1125 312.5 250 1125 250 250
1125 187.5 250 1125 125 250 1125 62.5 250 1125
0 250 1125 500 187.5 1125 437.5 187.5 1125 375
187.5 1125 312.5 187.5 1125 250 187.5 1125 187.5 187.5
1125 125 187.5 1125 62.5 187.5 1125 0 187.5 1125
500 125 1125 437.5 125 1125 375 125 1125 312.5
125 1125 250 125 1125 187.5 125 1125 125 125
1125 62.5 125 1125 0 125 1125 500 62.5 1125
437.5 62.5 1125 375 62.5 1125 312.5 62.5 1125 250
62.5 1125 187.5 62.5 1125 125 62.5 1125 62.5 62.5
1125 0 62.5 1125 500 0 1125 437.5 0 1125
375 0 1125 312.5 0 1125 250 0 1125 187.5
0 1125 125 0 1125 62.5 0 1125 0 0
1125 500 500 1062.5 437.5 500 1062.5 375 500 1062.5
312.5 500 1062.5 250 500 1062.5 187.5 500 1062.5 125
500 1062.5 62.5 500 1062.5 0 500 1062.5 500 437.5
1062.5 437.5 437.5 1062.5 375 437.5 1062.5 312.5 437.5 1062.5
250 437.5 1062.5 187.5 437.5 1062.5 125 437.5 1062.5 62.5
437.5 1062.5 0 437.5 1062.5 500 375 1062.5 437.5 375
1062.5 375 375 1062.5 312.5 375 1062.5 250 375 1062.5
187.5 375 1062.5 125 375 1062.5 62.5 375 1062.5 0
375 1062.5 500 312.5 1062.5 437.5 312.5 1062.5 375 312.5
1062.5 312.5 312.5 1062.5 250 312.5 1062.5 187.5 312.5 1062.5
125 312.5 1062.5 62.5 312.5 1062.5 0 312.5 1062.5 500
250 1062.5 437.5 250 1062.5 375 250 1062.5 312.5 250
1062.5 250 250 1062.5 187.5 250 1062.5 125 250 1062.5
62.5 250 1062.5 0 250 1062.5 500 187.5 1062.5 437.5
187.5 1062.5 375 187.5 1062.5 312.5 187.5 1062.5 250 187.5
1062.5 187.5 187.5 1062.5 125 187.5 1062.5 62.5 187.5 1062.5
0 187.5 1062.5 500 125 1062.5 437.5 125 1062.5 375
125 1062.5 312.5 125 1062.5 250 125 1062.5 187.5 125
1062.5 125 125 1062.5 62.5 125 1062.5 0 125 1062.5
500 62.5 1062.5 437.5 62.5 1062.5 375 62.5 1062.5 312.5
62.5 1062.5 250 62.5 1062.5 187.5 62.5 1062.5 125 62.5
[...]
<PointData>
<DataArray type="Float64" Name="ux" NumberOfComponents="1" format="ascii">
4.74839e-014 1.06612e-009 6.69134e-010 2.58207e-010 5.37171e-018 -2.58207e-010 -6.69134e-010 -1.06612e-009 -4.74839e-014 9.49676e-014
6.40507e-010 5.42299e-010 2.48401e-010 -6.90391e-018 -2.48401e-010 -5.42299e-010 -6.40507e-010 -9.49676e-014 9.49675e-014 2.04822e-010
2.89038e-010 1.7224e-010 -1.16403e-017 -1.7224e-010 -2.89038e-010 -2.04822e-010 -9.49675e-014 9.49675e-014 9.75558e-011 1.35412e-010
9.71271e-011 -1.36903e-017 -9.71271e-011 -1.35412e-010 -9.75558e-011 -9.49675e-014 9.49675e-014 6.53719e-011 9.74262e-011 6.97224e-011
-7.23311e-018 -6.97224e-011 -9.74263e-011 -6.53719e-011 -9.49675e-014 9.49675e-014 9.75558e-011 1.35412e-010 9.71271e-011 -1.4894e-017
-9.71271e-011 -1.35412e-010 -9.75558e-011 -9.49675e-014 9.49675e-014 2.04822e-010 2.89038e-010 1.7224e-010 -3.37311e-017 -1.7224e-010
-2.89038e-010 -2.04822e-010 -9.49675e-014 9.49676e-014 6.40507e-010 5.42299e-010 2.48401e-010 -3.59143e-017 -2.48401e-010 -5.42299e-010
-6.40507e-010 -9.49676e-014 4.74839e-014 1.06612e-009 6.69134e-010 2.58207e-010 -5.10576e-017 -2.58207e-010 -6.69134e-010 -1.06612e-009
-4.74839e-014 9.49675e-014 -2.14056e-009 -3.58686e-010 -1.13849e-010 -6.20882e-018 1.13849e-010 3.58686e-010 2.14056e-009 -9.49675e-014
1.89935e-013 -3.19149e-010 -3.38787e-010 -8.73351e-011 -1.13211e-017 8.7335e-011 3.38787e-010 3.19149e-010 -1.89935e-013 1.89935e-013
-1.377e-010 -8.27285e-011 -5.17374e-011 -9.28036e-018 5.17373e-011 8.27285e-011 1.377e-010 -1.89935e-013 1.89935e-013 -1.66514e-011
-3.31178e-011 -1.35628e-011 -1.60292e-018 1.35628e-011 3.31178e-011 1.66513e-011 -1.89935e-013 1.89935e-013 -1.11522e-011 -9.6275e-012
-8.53893e-012 2.49731e-020 8.53892e-012 9.62747e-012 1.11522e-011 -1.89935e-013 1.89935e-013 -1.66513e-011 -3.31178e-011 -1.35628e-011
-6.92146e-018 1.35628e-011 3.31178e-011 1.66513e-011 -1.89935e-013 1.89935e-013 -1.377e-010 -8.27285e-011 -5.17374e-011 -1.48972e-017
5.17374e-011 8.27285e-011 1.377e-010 -1.89935e-013 1.89935e-013 -3.19149e-010 -3.38787e-010 -8.73351e-011 -2.81145e-017 8.7335e-011
3.38787e-010 3.19149e-010 -1.89935e-013 9.49675e-014 -2.14056e-009 -3.58686e-010 -1.13849e-010 -2.60339e-017 1.13849e-010 3.58686e-010
2.14056e-009 -9.49675e-014 9.49675e-014 -5.1117e-010 -6.6884e-010 -2.52275e-010 -9.02059e-018 2.52275e-010 6.6884e-010 5.1117e-010
-9.49675e-014 1.89935e-013 -4.67221e-010 -4.22188e-010 -2.21593e-010 -7.21693e-018 2.21593e-010 4.22188e-010 4.67221e-010 -1.89935e-013
1.89935e-013 -1.70619e-010 -2.21117e-010 -1.30508e-010 -1.49429e-018 1.30508e-010 2.21117e-010 1.70619e-010 -1.89935e-013 1.89935e-013
-9.0817e-011 -1.08437e-010 -7.16244e-011 7.51393e-019 7.16244e-011 1.08437e-010 9.0817e-011 -1.89935e-013 1.89935e-013 -5.54613e-011
-7.95019e-011 -5.27e-011 1.22453e-018 5.27e-011 7.95018e-011 5.54613e-011 -1.89935e-013 1.89935e-013 -9.0817e-011 -1.08437e-010
-7.16244e-011 -5.94565e-018 7.16244e-011 1.08437e-010 9.0817e-011 -1.89935e-013 1.89935e-013 -1.70619e-010 -2.21117e-010 -1.30508e-010
6.49409e-018 1.30508e-010 2.21117e-010 1.70619e-010 -1.89935e-013 1.89935e-013 -4.67221e-010 -4.22188e-010 -2.21593e-010 -3.5946e-018
2.21593e-010 4.22188e-010 4.67221e-010 -1.89935e-013 9.49675e-014 -5.1117e-010 -6.6884e-010 -2.52275e-010 3.34001e-018 2.52275e-010
6.6884e-010 5.1117e-010 -9.49675e-014 9.49675e-014 -2.73809e-010 -3.30893e-010 -2.2321e-010 -5.3292e-018 2.2321e-010 3.30893e-010
2.73809e-010 -9.49675e-014 1.89935e-013 -2.25769e-010 -2.93854e-010 -1.81358e-010 -4.9775e-018 1.81358e-010 2.93854e-010 2.25769e-010
-1.89935e-013 1.89935e-013 -1.52535e-010 -1.8796e-010 -1.22021e-010 -2.5413e-018 1.22021e-010 1.8796e-010 1.52535e-010 -1.89935e-013
1.89935e-013 -8.42156e-011 -1.15847e-010 -7.75686e-011 2.58653e-018 7.75686e-011 1.15847e-010 8.42156e-011 -1.89935e-013 1.89935e-013
-6.86355e-011 -9.14527e-011 -6.26218e-011 -2.40682e-018 6.26218e-011 9.14527e-011 6.86355e-011 -1.89935e-013 1.89935e-013 -8.42156e-011
-1.15847e-010 -7.75686e-011 5.804e-018 7.75686e-011 1.15847e-010 8.42156e-011 -1.89935e-013 1.89935e-013 -1.52535e-010 -1.8796e-010
-1.22021e-010 3.39267e-018 1.22021e-010 1.8796e-010 1.52535e-010 -1.89935e-013 1.89935e-013 -2.25769e-010 -2.93854e-010 -1.81358e-010
1.55948e-017 1.81358e-010 2.93854e-010 2.25769e-010 -1.89935e-013 9.49675e-014 -2.73809e-010 -3.30893e-010 -2.2321e-010 9.87007e-018
2.2321e-010 3.30893e-010 2.73809e-010 -9.49675e-014 9.49675e-014 -1.30919e-010 -1.80951e-010 -1.21631e-010 3.85113e-018 1.21631e-010
1.80951e-010 1.30919e-010 -9.49675e-014 1.89935e-013 -1.19482e-010 -1.61652e-010 -1.10885e-010 -4.92892e-018 1.10885e-010 1.61652e-010
1.19482e-010 -1.89935e-013 1.89935e-013 -9.03328e-011 -1.23634e-010 -8.34758e-011 -8.63201e-018 8.34758e-011 1.23634e-010 9.03328e-011
-1.89935e-013 1.89935e-013 -6.50517e-011 -8.81609e-011 -6.05858e-011 2.79528e-018 6.05858e-011 8.81609e-011 6.50517e-011 -1.89935e-013
1.89935e-013 -5.39132e-011 -7.52294e-011 -5.19598e-011 4.39999e-018 5.19598e-011 7.52294e-011 5.39132e-011 -1.89935e-013 1.89935e-013
-6.50517e-011 -8.81609e-011 -6.05858e-011 5.73785e-018 6.05858e-011 8.81609e-011 6.50517e-011 -1.89935e-013 1.89935e-013 -9.03328e-011
-1.23634e-010 -8.34758e-011 1.42837e-017 8.34758e-011 1.23634e-010 9.03328e-011 -1.89935e-013 1.89935e-013 -1.19482e-010 -1.61652e-010
-1.10885e-010 2.56808e-017 1.10885e-010 1.61652e-010 1.19482e-010 -1.89935e-013 9.49675e-014 -1.30919e-010 -1.80951e-010 -1.21631e-010
2.08403e-017 1.21631e-010 1.80951e-010 1.30919e-010 -9.49675e-014 9.49675e-014 -6.57221e-011 -9.14097e-011 -6.40564e-011 4.52895e-018
6.40564e-011 9.14097e-011 6.57221e-011 -9.49675e-014 1.89935e-013 -6.11911e-011 -8.55393e-011 -5.95389e-011 -5.84306e-018 5.95389e-011
8.55393e-011 6.11911e-011 -1.89935e-013 1.89935e-013 -5.09743e-011 -7.0963e-011 -4.95317e-011 1.29248e-018 4.95317e-011 7.09631e-011
5.09743e-011 -1.89935e-013 1.89935e-013 -4.08884e-011 -5.71806e-011 -3.977e-011 8.6696e-018 3.977e-011 5.71806e-011 4.08884e-011
-1.89935e-013 1.89935e-013 -3.69995e-011 -5.14749e-011 -3.59363e-011 1.37801e-017 3.59363e-011 5.14749e-011 3.69995e-011 -1.89935e-013
1.89935e-013 -4.08884e-011 -5.71806e-011 -3.977e-011 1.03903e-017 3.977e-011 5.71806e-011 4.08884e-011 -1.89935e-013 1.89935e-013
-5.09743e-011 -7.0963e-011 -4.95317e-011 1.17465e-017 4.95317e-011 7.09631e-011 5.09743e-011 -1.89935e-013 1.89935e-013 -6.1191e-011
-8.55393e-011 -5.95389e-011 1.24966e-017 5.95389e-011 8.55394e-011 6.11911e-011 -1.89935e-013 9.49675e-014 -6.57221e-011 -9.14097e-011
-6.40564e-011 2.92867e-017 6.40564e-011 9.14098e-011 6.57221e-011 -9.49675e-014 9.49675e-014 -3.25283e-011 -4.58733e-011 -3.22407e-011
1.34951e-018 3.22407e-011 4.58733e-011 3.25284e-011 -9.49675e-014 1.89935e-013 -3.10317e-011 -4.37007e-011 -3.07651e-011 1.64472e-019
3.07651e-011 4.37007e-011 3.10317e-011 -1.89935e-013 1.89935e-013 -2.73769e-011 -3.86067e-011 -2.7139e-011 2.45647e-018 2.7139e-011
3.86067e-011 2.7377e-011 -1.89935e-013 1.89935e-013 -2.38111e-011 -3.35211e-011 -2.35758e-011 5.72417e-018 2.35758e-011 3.35211e-011
2.38111e-011 -1.89935e-013 1.89935e-013 -2.23145e-011 -3.14603e-011 -2.20894e-011 1.09356e-017 2.20894e-011 3.14604e-011 2.23145e-011
-1.89935e-013 1.89935e-013 -2.38111e-011 -3.35211e-011 -2.35758e-011 1.29599e-017 2.35758e-011 3.35211e-011 2.38111e-011 -1.89935e-013
1.89935e-013 -2.73769e-011 -3.86066e-011 -2.7139e-011 1.84965e-017 2.7139e-011 3.86067e-011 2.73769e-011 -1.89935e-013 1.89935e-013
-3.10316e-011 -4.37007e-011 -3.07651e-011 1.394e-017 3.07651e-011 4.37007e-011 3.10317e-011 -1.89935e-013 9.49675e-014 -3.25283e-011
-4.58732e-011 -3.22407e-011 1.81969e-017 3.22407e-011 4.58733e-011 3.25283e-011 -9.49675e-014 9.49675e-014 -1.60369e-011 -2.26938e-011
-1.60327e-011 -2.09022e-019 1.60327e-011 2.26938e-011 1.60369e-011 -9.49675e-014 1.89935e-013 -1.55175e-011 -2.19811e-011 -1.55197e-011
-7.00648e-019 1.55197e-011 2.19811e-011 1.55175e-011 -1.89935e-013 1.89935e-013 -1.42756e-011 -2.02395e-011 -1.42946e-011 1.89396e-018
1.42946e-011 2.02395e-011 1.42756e-011 -1.89935e-013 1.89935e-013 -1.30474e-011 -1.85069e-011 -1.30645e-011 8.73399e-018 1.30645e-011
1.85069e-011 1.30474e-011 -1.89935e-013 1.89935e-013 -1.25448e-011 -1.77853e-011 -1.25585e-011 1.5234e-017 1.25585e-011 1.77853e-011
1.25448e-011 -1.89935e-013 1.89935e-013 -1.30474e-011 -1.85069e-011 -1.30645e-011 1.99151e-017 1.30645e-011 1.85069e-011 1.30474e-011
-1.89935e-013 1.89935e-013 -1.42756e-011 -2.02395e-011 -1.42946e-011 1.49312e-017 1.42946e-011 2.02395e-011 1.42756e-011 -1.89935e-013
1.89935e-013 -1.55175e-011 -2.19811e-011 -1.55197e-011 1.7463e-017 1.55197e-011 2.19811e-011 1.55175e-011 -1.89935e-013 9.49675e-014
-1.60369e-011 -2.26938e-011 -1.60327e-011 2.14625e-017 1.60327e-011 2.26938e-011 1.60369e-011 -9.49675e-014 9.49675e-014 -7.83864e-012
-1.11485e-011 -7.89052e-012 3.65171e-018 7.89052e-012 1.11485e-011 7.83865e-012 -9.49675e-014 1.89935e-013 -7.66666e-012 -1.09147e-011
-7.7262e-012 -2.50708e-018 7.7262e-012 1.09147e-011 7.66666e-012 -1.89935e-013 1.89935e-013 -7.24974e-012 -1.03484e-011 -7.32667e-012
-8.16076e-020 7.32668e-012 1.03484e-011 7.24973e-012 -1.89935e-013 1.89935e-013 -6.85028e-012 -9.78062e-012 -6.9272e-012 4.38043e-018
6.9272e-012 9.78062e-012 6.85028e-012 -1.89935e-013 1.89935e-013 -6.68417e-012 -9.54719e-012 -6.76086e-012 5.53639e-018 6.76086e-012
9.54719e-012 6.68416e-012 -1.89935e-013 1.89935e-013 -6.85028e-012 -9.78061e-012 -6.92719e-012 2.2571e-018 6.9272e-012 9.78063e-012
6.85028e-012 -1.89935e-013 1.89935e-013 -7.24973e-012 -1.03484e-011 -7.32666e-012 9.96709e-018 7.32667e-012 1.03484e-011 7.24974e-012
-1.89935e-013 1.89935e-013 -7.66666e-012 -1.09147e-011 -7.72619e-012 6.0135e-018 7.72621e-012 1.09147e-011 7.66666e-012 -1.89935e-013
9.49675e-014 -7.83864e-012 -1.11485e-011 -7.89052e-012 6.952e-018 7.89053e-012 1.11485e-011 7.83865e-012 -9.49675e-014 9.49675e-014
-3.78963e-012 -5.42971e-012 -3.85383e-012 -2.60851e-018 3.85382e-012 5.42972e-012 3.78964e-012 -9.49675e-014 1.89935e-013 -3.73047e-012
-5.35759e-012 -3.80236e-012 1.66878e-018 3.80236e-012 5.35758e-012 3.73046e-012 -1.89935e-013 1.89935e-013 -3.58797e-012 -5.17864e-012
-3.67809e-012 -6.9029e-019 3.67808e-012 5.17863e-012 3.58797e-012 -1.89935e-013 1.89935e-013 -3.46229e-012 -5.00009e-012 -3.5533e-012
9.3392e-019 3.5533e-012 5.00008e-012 3.46228e-012 -1.89935e-013 1.89935e-013 -3.41066e-012 -4.92693e-012 -3.50157e-012 3.15184e-018
3.50157e-012 4.92693e-012 3.41066e-012 -1.89935e-013 1.89935e-013 -3.46228e-012 -5.00009e-012 -3.5533e-012 -1.80659e-018 3.5533e-012
5.00008e-012 3.46228e-012 -1.89935e-013 1.89935e-013 -3.58797e-012 -5.17863e-012 -3.67808e-012 1.98258e-018 3.67809e-012 5.17864e-012
3.58797e-012 -1.89935e-013 1.89935e-013 -3.73047e-012 -5.35759e-012 -3.80236e-012 -1.81611e-018 3.80236e-012 5.35759e-012 3.73047e-012
-1.89935e-013 9.49675e-014 -3.78964e-012 -5.42972e-012 -3.85383e-012 2.92682e-018 3.85383e-012 5.42972e-012 3.78963e-012 -9.49675e-014
9.49675e-014 -1.79638e-012 -2.61296e-012 -1.86328e-012 -5.74244e-019 1.86328e-012 2.61295e-012 1.79638e-012 -9.49675e-014 1.89935e-013
-1.77318e-012 -2.59145e-012 -1.84789e-012 3.18477e-018 1.84789e-012 2.59144e-012 1.77317e-012 -1.89935e-013 1.89935e-013 -1.71732e-012
-2.53533e-012 -1.8104e-012 -2.48449e-018 1.8104e-012 2.53532e-012 1.7173e-012 -1.89935e-013 1.89935e-013 -1.67856e-012 -2.47959e-012
-1.77271e-012 -1.41773e-018 1.7727e-012 2.47959e-012 1.67855e-012 -1.89935e-013 1.89935e-013 -1.66281e-012 -2.45756e-012 -1.75697e-012
-2.37952e-018 1.75696e-012 2.45755e-012 1.66281e-012 -1.89935e-013 1.89935e-013 -1.67855e-012 -2.4796e-012 -1.77271e-012 3.39378e-018
1.77271e-012 2.47959e-012 1.67855e-012 -1.89935e-013 1.89935e-013 -1.71732e-012 -2.53533e-012 -1.81041e-012 -7.77965e-018 1.8104e-012
2.53534e-012 1.71732e-012 -1.89935e-013 1.89935e-013 -1.77319e-012 -2.59146e-012 -1.8479e-012 -1.68158e-018 1.84789e-012 2.59145e-012
1.77318e-012 -1.89935e-013 9.49675e-014 -1.7964e-012 -2.61297e-012 -1.86329e-012 -1.64e-018 1.8633e-012 2.61297e-012 1.79639e-012
-9.49675e-014 9.49675e-014 -8.18769e-013 -1.23081e-012 -8.863e-013 4.36332e-019 8.86297e-013 1.23081e-012 8.1876e-013 -9.49675e-014
1.89935e-013 -8.06343e-013 -1.22461e-012 -8.81703e-013 -1.96677e-018 8.81699e-013 1.22459e-012 8.06331e-013 -1.89935e-013 1.89935e-013
-7.76573e-013 -1.20539e-012 -8.7033e-013 -2.43345e-018 8.70328e-013 1.20538e-012 7.76564e-013 -1.89935e-013 1.89935e-013 -7.63917e-013
-1.18662e-012 -8.58768e-013 -4.50925e-018 8.58766e-013 1.18661e-012 7.63914e-013 -1.89935e-013 1.89935e-013 -7.59029e-013 -1.17989e-012
-8.53889e-013 -1.32741e-018 8.5388e-013 1.17988e-012 7.5902e-013 -1.89935e-013 1.89935e-013 -7.63921e-013 -1.18663e-012 -8.58778e-013
-5.59498e-018 8.58763e-013 1.18661e-012 7.63904e-013 -1.89935e-013 1.89935e-013 -7.76577e-013 -1.20539e-012 -8.70343e-013 -6.94586e-018
8.70327e-013 1.20538e-012 7.76567e-013 -1.89935e-013 1.89935e-013 -8.06346e-013 -1.22462e-012 -8.81714e-013 -6.99627e-018 8.81702e-013
1.22461e-012 8.06345e-013 -1.89935e-013 9.49675e-014 -8.18772e-013 -1.23083e-012 -8.86312e-013 -8.60673e-018 8.86299e-013 1.23081e-012
8.18764e-013 -9.49675e-014 9.49675e-014 -3.41006e-013 -5.55269e-013 -4.08689e-013 2.72238e-019 4.08689e-013 5.55266e-013 3.41001e-013
-9.49675e-014 1.89935e-013 -3.31642e-013 -5.53387e-013 -4.07154e-013 -1.29789e-018 4.07142e-013 5.53379e-013 3.31643e-013 -1.89935e-013
1.89935e-013 -3.09265e-013 -5.44629e-013 -4.03184e-013 -7.28547e-018 4.03173e-013 5.44625e-013 3.09265e-013 -1.89935e-013 1.89935e-013
-3.04021e-013 -5.36324e-013 -3.99024e-013 3.91904e-019 3.99017e-013 5.3632e-013 3.04015e-013 -1.89935e-013 1.89935e-013 -3.02191e-013
-5.33934e-013 -3.97203e-013 -7.14943e-018 3.9719e-013 5.33923e-013 3.02181e-013 -1.89935e-013 1.89935e-013 -3.04022e-013 -5.36329e-013
-3.99035e-013 -9.61569e-018 3.99013e-013 5.36306e-013 3.0401e-013 -1.89935e-013 1.89935e-013 -3.09273e-013 -5.44642e-013 -4.03196e-013
-8.07015e-018 4.03174e-013 5.44625e-013 3.09258e-013 -1.89935e-013 1.89935e-013 -3.31657e-013 -5.534e-013 -4.07165e-013 -8.82758e-018
4.07151e-013 5.53381e-013 3.31639e-013 -1.89935e-013 9.49675e-014 -3.41008e-013 -5.55278e-013 -4.08701e-013 -5.58771e-018 4.08684e-013
5.55266e-013 3.41002e-013 -9.49675e-014 9.49675e-014 -1.08434e-013 -2.26386e-013 -1.76153e-013 -1.18563e-018 1.7615e-013 2.26389e-013
1.08442e-013 -9.49675e-014 1.89935e-013 -9.98762e-014 -2.25638e-013 -1.75421e-013 -8.0888e-018 1.75415e-013 2.25639e-013 9.98785e-014
-1.89935e-013 1.89935e-013 -7.9434e-014 -2.19622e-013 -1.73388e-013 -5.7058e-018 1.73372e-013 2.19613e-013 7.94322e-014 -1.89935e-013
1.89935e-013 -7.61197e-014 -2.14049e-013 -1.71163e-013 -6.40392e-018 1.71152e-013 2.14038e-013 7.61182e-014 -1.89935e-013 1.89935e-013
-7.50972e-014 -2.12796e-013 -1.70136e-013 -4.89975e-018 1.70115e-013 2.1278e-013 7.50935e-014 -1.89935e-013 1.89935e-013 -7.61232e-014
-2.14058e-013 -1.71163e-013 -5.62043e-018 1.71145e-013 2.1404e-013 7.61066e-014 -1.89935e-013 1.89935e-013 -7.94374e-014 -2.19625e-013
-1.73392e-013 -1.20857e-017 1.73373e-013 2.19606e-013 7.94265e-014 -1.89935e-013 1.89935e-013 -9.98862e-014 -2.25657e-013 -1.75431e-013
-7.9272e-018 1.75405e-013 2.25626e-013 9.98647e-014 -1.89935e-013 9.49675e-014 -1.08441e-013 -2.26396e-013 -1.76169e-013 -5.37879e-018
1.76147e-013 2.26375e-013 1.08431e-013 -9.49675e-014 9.49675e-014 4.32839e-015 -6.69231e-014 -6.33971e-014 -5.41097e-019 6.34018e-014
6.69248e-014 -4.32332e-015 -9.49675e-014 1.89935e-013 1.26985e-014 -6.64377e-014 -6.28476e-014 -2.52868e-018 6.28449e-014 6.644e-014
-1.27004e-014 -1.89935e-013 1.89935e-013 3.26942e-014 -6.10542e-014 -6.12615e-014 -6.64133e-018 6.12559e-014 6.10418e-014 -3.27029e-014
-1.89935e-013 1.89935e-013 3.55629e-014 -5.61154e-014 -5.94844e-014 -6.83116e-018 5.94688e-014 5.61101e-014 -3.55686e-014 -1.89935e-013
1.89935e-013 3.64056e-014 -5.51087e-014 -5.86457e-014 -8.04723e-018 5.86346e-014 5.5101e-014 -3.64061e-014 -1.89935e-013 1.89935e-013
3.55654e-014 -5.61161e-014 -5.94841e-014 -8.59719e-018 5.9467e-014 5.61033e-014 -3.55695e-014 -1.89935e-013 1.89935e-013 3.26929e-014
-6.10545e-014 -6.1271e-014 -6.6901e-018 6.125e-014 6.10339e-014 -3.27042e-014 -1.89935e-013 1.89935e-013 1.26939e-014 -6.64489e-014
-6.28604e-014 -7.69152e-018 6.28384e-014 6.64267e-014 -1.27082e-014 -1.89935e-013 9.49675e-014 4.31859e-015 -6.69319e-014 -6.34085e-014
-1.12341e-017 6.33923e-014 6.69177e-014 -4.33452e-015 -9.49675e-014 9.49675e-014 5.87858e-014 1.0096e-014 -8.93828e-015 1.80196e-018
8.93663e-015 -1.0094e-014 -5.87818e-014 -9.49675e-014 1.89935e-013 6.71284e-014 1.05263e-014 -8.42441e-015 9.39437e-019 8.42552e-015
-1.05355e-014 -6.71321e-014 -1.89935e-013 1.89935e-013 8.70428e-014 1.58124e-014 -6.91542e-015 -3.83655e-018 6.91062e-015 -1.58134e-014
-8.70507e-014 -1.89935e-013 1.89935e-013 8.98379e-014 2.06335e-014 -5.21877e-015 -2.98216e-018 5.20834e-015 -2.06421e-014 -8.98376e-014
-1.89935e-013 1.89935e-013 9.06429e-014 2.15892e-014 -4.4168e-015 -6.66132e-018 4.40186e-015 -2.15994e-014 -9.06479e-014 -1.89935e-013
1.89935e-013 8.98382e-014 2.06387e-014 -5.21853e-015 -9.72982e-018 5.20114e-015 -2.0646e-014 -8.98414e-014 -1.89935e-013 1.89935e-013
8.70454e-014 1.58111e-014 -6.91842e-015 -8.89575e-018 6.90225e-015 -1.58254e-014 -8.70482e-014 -1.89935e-013 1.89935e-013 6.71266e-014
1.0531e-014 -8.42615e-015 -1.20629e-017 8.40822e-015 -1.05423e-014 -6.71307e-014 -1.89935e-013 9.49675e-014 5.87852e-014 1.00955e-014
-8.9443e-015 -1.08265e-017 8.92718e-015 -1.01024e-014 -5.87889e-014 -9.49675e-014 9.49675e-014 8.50118e-014 4.71773e-014 1.72827e-014
4.2972e-018 -1.72775e-014 -4.71812e-014 -8.50139e-014 -9.49675e-014 1.89935e-013 9.33488e-014 4.76128e-014 1.77957e-014 -6.2254e-019
-1.78011e-014 -4.76215e-014 -9.33518e-014 -1.89935e-013 1.89935e-013 1.13271e-013 5.2889e-014 1.93022e-014 -1.03657e-018 -1.93048e-014
-5.28929e-014 -1.13268e-013 -1.89935e-013 1.89935e-013 1.16058e-013 5.77124e-014 2.09997e-014 -8.50326e-019 -2.10049e-014 -5.77166e-014
-1.16057e-013 -1.89935e-013 1.89935e-013 1.1686e-013 5.86638e-014 2.18078e-014 -8.44586e-019 -2.18154e-014 -5.86735e-014 -1.16864e-013
-1.89935e-013 1.89935e-013 1.16055e-013 5.77107e-014 2.09958e-014 -7.80063e-018 -2.10116e-014 -5.77217e-014 -1.16058e-013 -1.89935e-013
1.89935e-013 1.13269e-013 5.28933e-014 1.9306e-014 -9.47224e-018 -1.93175e-014 -5.28997e-014 -1.13268e-013 -1.89935e-013 1.89935e-013
9.33528e-014 4.76231e-014 1.77922e-014 -1.04847e-017 -1.78085e-014 -4.76234e-014 -9.33505e-014 -1.89935e-013 9.49675e-014 8.50127e-014
4.71812e-014 1.72816e-014 -1.06141e-017 -1.7293e-014 -4.71822e-014 -8.5011e-014 -9.49675e-014 9.49675e-014 9.76219e-014 6.50128e-014
2.98941e-014 -3.68035e-020 -2.98938e-014 -6.50125e-014 -9.76224e-014 -9.49675e-014 1.89935e-013 1.05964e-013 6.54555e-014 3.04117e-014
-5.42319e-019 -3.04151e-014 -6.54551e-014 -1.05965e-013 -1.89935e-013 1.89935e-013 1.25891e-013 7.07423e-014 3.19285e-014 9.68615e-019
-3.19304e-014 -7.07473e-014 -1.25887e-013 -1.89935e-013 1.89935e-013 1.28687e-013 7.5578e-014 3.36393e-014 4.39054e-018 -3.36339e-014
-7.55797e-014 -1.28689e-013 -1.89935e-013 1.89935e-013 1.29496e-013 7.65365e-014 3.44417e-014 -4.44678e-018 -3.4447e-014 -7.65382e-014
-1.29497e-013 -1.89935e-013 1.89935e-013 1.28688e-013 7.55742e-014 3.36325e-014 -3.80337e-018 -3.3641e-014 -7.55839e-014 -1.28692e-013
-1.89935e-013 1.89935e-013 1.25891e-013 7.07452e-014 3.19273e-014 -5.91099e-018 -3.19362e-014 -7.07479e-014 -1.25893e-013 -1.89935e-013
1.89935e-013 1.05967e-013 6.54549e-014 3.04131e-014 -3.0026e-018 -3.04186e-014 -6.54642e-014 -1.05968e-013 -1.89935e-013 9.49675e-014
9.76256e-014 6.50178e-014 2.98899e-014 -5.44474e-018 -2.99001e-014 -6.50172e-014 -9.76234e-014 -9.49675e-014 9.49675e-014 1.03683e-013
7.35847e-014 3.59551e-014 3.148e-018 -3.5951e-014 -7.35859e-014 -1.03681e-013 -9.49675e-014 1.89935e-013 1.12031e-013 7.40315e-014
3.6479e-014 1.39748e-018 -3.64781e-014 -7.40305e-014 -1.12028e-013 -1.89935e-013 1.89935e-013 1.31961e-013 7.93319e-014 3.80043e-014