<VTKFile type="UnstructuredGrid" version="1.0">
<UnstructuredGrid>
<FieldData>
<DataArray type="Float64" Name="TIME" NumberOfTuples="1" format="ascii" RangeMin="2.3" RangeMax="2.3">
2.3
</DataArray>
</FieldData>
<Piece NumberOfPoints="2788" NumberOfCells="2046">
<Points>
<DataArray type="Float64" NumberOfComponents="3" format="ascii">
-5 -5 0 5 -5 0 5 0.34202 0 5
5 0 -5 5 0 -5 -0.34202 0 -0.939693 -0.34202
0 -0.563816 -0.205212 0 0.563816 0.205212 0 0.939693 0.34202 0
-1.50351 -0.34202 0 1.50351 0.34202 0 -0.939693 -0.34202 0.15 -0.563816
-0.205212 0.15 0.563816 0.205212 0.15 0.939693 0.34202 0.15 -5 -5
0.15 5 -5 0.15 5 0.34202 0.15 1.50351 0.34202 0.15
-1.50351 -0.34202 0.15 -5 -0.34202 0.15 5 5 0.15 -5
5 0.15 -3.33333 -5 0 -1.66667 -5 0 -6.14531e-12 -5
0 1.66667 -5 0 3.33333 -5 0 5 -3.66449 0
5 -2.32899 0 5 -0.993485 0 5 1.50652 0 5
2.67101 0 5 3.83551 0 3.33333 5 0 1.66667 5
0 6.14531e-12 5 0 -1.66667 5 0 -3.33333 5 0
-5 3.66449 0 -5 2.32899 0 -5 0.993485 0 -5
-1.50652 0 -5 -2.67101 0 -5 -3.83551 0 -3.99857 -0.34202
0 -3.27244 -0.34202 0 -2.74592 -0.34202 0 -2.36414 -0.34202 0
-2.08732 -0.34202 0 -1.8866 -0.34202 0 -1.74105 -0.34202 0 -1.63552
-0.34202 0 -1.55899 -0.34202 0 -0.892708 -0.324919 0 -0.845723 -0.307818
0 -0.798739 -0.290717 0 -0.751754 -0.273616 0 -0.704769 -0.256515 0
-0.657785 -0.239414 0 -0.6108 -0.222313 0 -0.516831 -0.188111 0 -0.469846
-0.17101 0 -0.422862 -0.153909 0 -0.375877 -0.136808 0 -0.328892 -0.119707
0 -0.281908 -0.102606 0 -0.234923 -0.085505 0 -0.187939 -0.068404 0
-0.140954 -0.051303 0 -0.0939693 -0.034202 0 -0.0469846 -0.017101 0 -1.46472e-12
-5.33129e-13 0 0.0469846 0.017101 0 0.0939693 0.034202 0 0.140954 0.051303
0 0.187939 0.068404 0 0.234923 0.085505 0 0.281908 0.102606 0
0.328892 0.119707 0 0.375877 0.136808 0 0.422862 0.153909 0 0.469846
0.17101 0 0.516831 0.188111 0 0.6108 0.222313 0 0.657785 0.239414
0 0.704769 0.256515 0 0.751754 0.273616 0 0.798739 0.290717 0
0.845723 0.307818 0 0.892708 0.324919 0 0.986677 0.34202 0 1.03366
0.34202 0 1.08065 0.34202 0 1.12763 0.34202 0 1.17462 0.34202
0 1.2216 0.34202 0 1.26859 0.34202 0 1.31557 0.34202 0
1.36255 0.34202 0 1.40954 0.34202 0 1.45652 0.34202 0 -1.45652
-0.34202 0 -1.40954 -0.34202 0 -1.36255 -0.34202 0 -1.31557 -0.34202
0 -1.26859 -0.34202 0 -1.2216 -0.34202 0 -1.17462 -0.34202 0
-1.12763 -0.34202 0 -1.08065 -0.34202 0 -1.03366 -0.34202 0 -0.986677
-0.34202 0 1.55899 0.34202 0 1.63552 0.34202 0 1.74105 0.34202
0 1.8866 0.34202 0 2.08732 0.34202 0 2.36414 0.34202 0
2.74592 0.34202 0 3.27244 0.34202 0 3.99857 0.34202 0 -0.892708
-0.324919 0.15 -0.845723 -0.307818 0.15 -0.798739 -0.290717 0.15 -0.751754 -0.273616
0.15 -0.704769 -0.256515 0.15 -0.657785 -0.239414 0.15 -0.6108 -0.222313 0.15
-0.939693 -0.34202 0.05 -0.939693 -0.34202 0.1 -0.563816 -0.205212 0.05 -0.563816
-0.205212 0.1 -0.516831 -0.188111 0.15 -0.469846 -0.17101 0.15 -0.422862 -0.153909
0.15 -0.375877 -0.136808 0.15 -0.328892 -0.119707 0.15 -0.281908 -0.102606 0.15
-0.234923 -0.085505 0.15 -0.187939 -0.068404 0.15 -0.140954 -0.051303 0.15 -0.0939693
-0.034202 0.15 -0.0469846 -0.017101 0.15 -1.46472e-12 -5.33129e-13 0.15 0.0469846 0.017101
0.15 0.0939693 0.034202 0.15 0.140954 0.051303 0.15 0.187939 0.068404 0.15
0.234923 0.085505 0.15 0.281908 0.102606 0.15 0.328892 0.119707 0.15 0.375877
0.136808 0.15 0.422862 0.153909 0.15 0.469846 0.17101 0.15 0.516831 0.188111
0.15 0.563816 0.205212 0.05 0.563816 0.205212 0.1 0.6108 0.222313 0.15
0.657785 0.239414 0.15 0.704769 0.256515 0.15 0.751754 0.273616 0.15 0.798739
0.290717 0.15 0.845723 0.307818 0.15 0.892708 0.324919 0.15 0.939693 0.34202
0.05 0.939693 0.34202 0.1 -3.33333 -5 0.15 -1.66667 -5 0.15
-6.14531e-12 -5 0.15 1.66667 -5 0.15 3.33333 -5 0.15 5
-3.66449 0.15 5 -2.32899 0.15 5 -0.993485 0.15 3.99857 0.34202
0.15 3.27244 0.34202 0.15 2.74592 0.34202 0.15 2.36414 0.34202 0.15
2.08732 0.34202 0.15 1.8866 0.34202 0.15 1.74105 0.34202 0.15 1.63552
0.34202 0.15 1.55899 0.34202 0.15 1.45652 0.34202 0.15 1.40954 0.34202
0.15 1.36255 0.34202 0.15 1.31557 0.34202 0.15 1.26859 0.34202 0.15
1.2216 0.34202 0.15 1.17462 0.34202 0.15 1.12763 0.34202 0.15 1.08065
0.34202 0.15 1.03366 0.34202 0.15 0.986677 0.34202 0.15 -0.986677 -0.34202
0.15 -1.03366 -0.34202 0.15 -1.08065 -0.34202 0.15 -1.12763 -0.34202 0.15
-1.17462 -0.34202 0.15 -1.2216 -0.34202 0.15 -1.26859 -0.34202 0.15 -1.31557
-0.34202 0.15 -1.36255 -0.34202 0.15 -1.40954 -0.34202 0.15 -1.45652 -0.34202
0.15 -1.55899 -0.34202 0.15 -1.63552 -0.34202 0.15 -1.74105 -0.34202 0.15
-1.8866 -0.34202 0.15 -2.08732 -0.34202 0.15 -2.36414 -0.34202 0.15 -2.74592
-0.34202 0.15 -3.27244 -0.34202 0.15 -3.99857 -0.34202 0.15 -5 -1.50652
0.15 -5 -2.67101 0.15 -5 -3.83551 0.15 -5 -5 0.05
-5 -5 0.1 5 -5 0.05 5 -5 0.1 5
0.34202 0.05 5 0.34202 0.1 1.50351 0.34202 0.05 1.50351 0.34202
0.1 -1.50351 -0.34202 0.05 -1.50351 -0.34202 0.1 -5 -0.34202 0.05
-5 -0.34202 0.1 5 1.50652 0.15 5 2.67101 0.15 5
3.83551 0.15 3.33333 5 0.15 1.66667 5 0.15 6.14531e-12 5
0.15 -1.66667 5 0.15 -3.33333 5 0.15 -5 3.66449 0.15
-5 2.32899 0.15 -5 0.993485 0.15 5 5 0.05 5
5 0.1 -5 5 0.05 -5 5 0.1 1.49 -2.35127
0 1.30657 -1.01876 0 -0.235152 -1.83197 0 1.01965 -0.0551234 0
0.490798 -0.564346 0 -0.235488 -1.00687 0 -1.28115 -1.41064 0 1.65876
-0.287006 0 0.696387 -0.158633 0 0.3928 -0.299435 0 -0.021507 -0.522896
0 -0.461241 -0.695533 0 -0.717216 -0.68871 0 -1.23962 -0.799122 0
-2.02264 -1.18736 0 1.38307 0.0458566 0 2.7466 -1.64058 0 -1.80679
-0.873317 0 0.943511 0.208478 0 0.784836 0.0888918 0 1.15763 0.0908879
0 0.122756 -0.257825 0 1.70006 -0.0516196 0 -0.326988 -0.428917 0
0.494716 -0.0461562 0 2.25359 -0.295263 0 -0.646774 -0.439266 0 -0.767766
-0.500212 0 -0.986492 -0.557648 0 -1.30326 -0.623848 0 -1.48692 -0.634285
0 0.348827 -0.0493954 0 -3.44459 -2.19996 0 -1.74815 -2.99628 0
-0.470821 -0.393057 0 1.31619 0.184767 0 1.4753 0.162087 0 0.929995
-0.502562 0 1.99852 -1.21996 0 0.496796 -1.28143 0 -0.194102 -0.244027
0 0.194055 -0.08475 0 -1.67695 -0.631074 0 -2.02172 -0.724316 0
0.759854 0.151021 0 0.514438 0.070501 0 0.857472 0.21523 0 0.437594
0.0126717 0 1.03495 0.214975 0 0.0342852 -0.0964671 0 -0.377858 -0.300177
0 -0.53986 -0.329217 0 1.31102 -0.402531 0 -1.31871 -0.492149 0
-1.16337 -0.52936 0 0.284342 -3.6376 0 2.42682 -3.60048 0 0.161029
-0.890425 0 -0.721433 -0.409792 0 -0.623479 -0.359097 0 1.85105 0.0132529
0 -2.97305 -1.35498 0 1.55919 0.194215 0 -0.990056 -2.47101 0
-1.05116 -0.478657 0 -0.930906 -0.468386 0 -0.878576 -1.2381 0 -1.4067
-0.485537 0 -1.54457 -0.496669 0 -1.2389 -0.454625 0 0.197623 -0.487657
0 -2.63554 -1.16332 0 -0.0566321 -0.195564 0 0.272487 -0.0275831 0
0.640131 -2.45269 0 -0.893193 -3.57984 0 -0.834289 -0.44497 0 1.35171
0.244479 0 1.26281 0.238018 0 1.69814 -3.3244 0 -2.91925 -3.64548
0 1.73947 0.144487 0 0.538984 -0.253361 0 0.875948 0.0926124 0
-0.271596 -0.660367 0 -0.561071 -0.899038 0 1.67516 -0.800656 0 -0.245381
-0.240624 0 -2.47584 -2.21812 0 -0.444307 -0.288172 0 0.652851 0.094869
0 0.121839 -0.0677357 0 -3.56315 -1.05947 0 0.887936 -0.115499 0
0.918746 -0.812301 0 1.04181 0.0970221 0 0.914913 -1.69498 0 0.628138
-0.407279 0 0.952801 0.269499 0 -1.11233 -0.989124 0 0.809917 0.180631
0 3.87456 -0.729907 0 2.17633 -0.109294 0 0.58592 -0.00362078 0
0.36605 0.0225288 0 2.44706 -0.0020399 0 1.2151 -0.0559847 0 0.450178
0.0722493 0 -1.67277 -1.37673 0 -1.91208 -1.98326 0 1.93584 -0.16607
0 1.92712 -1.9271 0 2.55442 -0.917594 0 -0.57156 -0.707249 0
-0.0126428 -0.0572175 0 -0.083391 -0.339176 0 0.903858 0.264858 0 -0.743497
-1.70113 0 1.4424 0.258915 0 0.00428776 -0.282849 0 3.72727 -2.50217
0 1.1228 0.269331 0 0.299853 -0.154292 0 -0.0106321 -2.55426 0
0.703205 0.00914277 0 0.526872 -0.936183 0 -1.13915 -0.414051 0 -0.687908
-0.323431 0 -0.596056 -0.285027 0 0.972143 -0.264031 0 0.0698931 -1.29919
0 -0.356133 -1.5164 0 0.463591 -0.138811 0 -0.893537 -0.389671 0
1.55115 -1.46358 0 -0.156249 -0.144885 0 0.197203 0.00596406 0 -1.31867
-0.407585 0 2.05349 0.131239 0 -2.65922 -2.75342 0 -0.788531 -0.36202
0 -2.17265 -3.84631 0 1.63947 0.255427 0 -1.81532 -0.524835 0
0.682186 0.181613 0 0.573606 0.143577 0 1.23416 0.291758 0 1.29428
0.291595 0 1.99863 -0.479007 0 -0.428376 -0.216577 0 -0.504815 -0.253407
0 0.0987769 -0.139248 0 -0.31582 -0.20121 0 -2.80394 -0.781916 0
0.0516782 -0.0344904 0 -2.18241 -0.552031 0 -1.46762 -0.423694 0 1.01281
0.292183 0 -0.56407 -0.443333 0 -0.985683 -0.409102 0 -0.956716 -0.800744
0 -0.092128 -0.78049 0 0.460888 -0.445844 0 1.10796 -0.699278 0
-0.877675 -0.498801 0 -0.860584 -0.607745 0 1.016 -2.87184 0 0.855224
0.27601 0 0.380769 0.0868021 0 -0.289217 -0.302884 0 0.259201 -0.335727
0 -0.0528167 -0.0900843 0 1.86877 -2.74803 0 1.54585 -0.104599 0
-1.56397 -0.416781 0 -1.65007 -0.452235 0 -0.420459 -0.553475 0 1.50694
0.0463956 0 1.25355 0.0936622 0 0.731862 0.204272 0 0.516729 0.13118
0 0.128968 -0.00304882 0 1.5007 0.289369 0 1.3841 0.291994 0
1.06337 0.278321 0 0.0124831 -0.0310952 0 -0.211241 -0.162585 0 -3.84927
-3.20819 0 -0.373421 -0.214495 0 2.5362 -2.49076 0 -2.34538 -1.5263
0 1.53676 0.301472 0 1.18334 0.274887 0 -0.555201 -0.247422 0
-4.18558 -2.00899 0 -0.742364 -0.319449 0 -0.646943 -0.281504 0 -1.07677
-0.405353 0 -1.19452 -0.398984 0 -0.843883 -0.352994 0 0.374796 -0.634815
0 -0.38614 -0.811049 0 -1.3764 -0.404163 0 -1.263 -0.395128 0
-1.49182 -0.964136 0 1.39097 0.155302 0 -1.08496 -0.672729 0 -1.03452
-0.38618 0 0.844938 0.0177805 0 -0.938381 -0.379412 0 1.37083 -0.113395
0 -1.2267 -0.378989 0 0.252411 -0.0861385 0 -4.1843 -1.28242 0
-1.41476 -0.389923 0 3.65961 -0.25184 0 0.844246 0.130637 0 0.933447
-1.08431 0 1.12062 -0.179306 0 1.205 0.199413 0 3.59815 -3.69617
0 0.711261 -0.643221 0 -0.675597 -0.5452 0 0.739258 0.0783948 0
0.802866 -0.339 0 -2.43396 -0.641886 0 0.542711 -0.0932055 0 -0.123205
-0.230049 0 0.824466 0.253937 0 0.433694 -0.0552285 0 0.288447 0.0486168
0 0.424393 0.12287 0 0.461531 0.122433 0 1.75608 -0.170055 0
0.779736 0.2282 0 3.07663 -0.304868 0 -0.771861 -0.893766 0 0.506333
[...]
<PointData>
<DataArray type="Float64" Name="val1" NumberOfComponents="1" format="ascii">
-5 -5 0.34202 5 5 -0.34202 -0.34202 -0.205212 0.205212 0.34202
-0.34202 0.34202 -0.34202 -0.205212 0.205212 0.34202 -5 -5 0.34202 0.34202
-0.34202 -0.34202 5 5 -5 -5 -5 -5 -5 -3.66449
-2.32899 -0.993485 1.50652 2.67101 3.83551 5 5 5 5 5
3.66449 2.32899 0.993485 -1.50652 -2.67101 -3.83551 -0.34202 -0.34202 -0.34202 -0.34202
-0.34202 -0.34202 -0.34202 -0.34202 -0.34202 -0.324919 -0.307818 -0.290717 -0.273616 -0.256515
-0.239414 -0.222313 -0.188111 -0.17101 -0.153909 -0.136808 -0.119707 -0.102606 -0.085505 -0.068404
-0.051303 -0.034202 -0.017101 -5.33129e-13 0.017101 0.034202 0.051303 0.068404 0.085505 0.102606
0.119707 0.136808 0.153909 0.17101 0.188111 0.222313 0.239414 0.256515 0.273616 0.290717
0.307818 0.324919 0.34202 0.34202 0.34202 0.34202 0.34202 0.34202 0.34202 0.34202
0.34202 0.34202 0.34202 -0.34202 -0.34202 -0.34202 -0.34202 -0.34202 -0.34202 -0.34202
-0.34202 -0.34202 -0.34202 -0.34202 0.34202 0.34202 0.34202 0.34202 0.34202 0.34202
0.34202 0.34202 0.34202 -0.324919 -0.307818 -0.290717 -0.273616 -0.256515 -0.239414 -0.222313
-0.34202 -0.34202 -0.205212 -0.205212 -0.188111 -0.17101 -0.153909 -0.136808 -0.119707 -0.102606
-0.085505 -0.068404 -0.051303 -0.034202 -0.017101 -5.33129e-13 0.017101 0.034202 0.051303 0.068404
0.085505 0.102606 0.119707 0.136808 0.153909 0.17101 0.188111 0.205212 0.205212 0.222313
0.239414 0.256515 0.273616 0.290717 0.307818 0.324919 0.34202 0.34202 -5 -5
-5 -5 -5 -3.66449 -2.32899 -0.993485 0.34202 0.34202 0.34202 0.34202
0.34202 0.34202 0.34202 0.34202 0.34202 0.34202 0.34202 0.34202 0.34202 0.34202
0.34202 0.34202 0.34202 0.34202 0.34202 0.34202 -0.34202 -0.34202 -0.34202 -0.34202
-0.34202 -0.34202 -0.34202 -0.34202 -0.34202 -0.34202 -0.34202 -0.34202 -0.34202 -0.34202
-0.34202 -0.34202 -0.34202 -0.34202 -0.34202 -0.34202 -1.50652 -2.67101 -3.83551 -5
-5 -5 -5 0.34202 0.34202 0.34202 0.34202 -0.34202 -0.34202 -0.34202
-0.34202 1.50652 2.67101 3.83551 5 5 5 5 5 3.66449
2.32899 0.993485 5 5 5 5 -2.35127 -1.01876 -1.83197 -0.0551234
-0.564346 -1.00687 -1.41064 -0.287006 -0.158633 -0.299435 -0.522896 -0.695533 -0.68871 -0.799122
-1.18736 0.0458566 -1.64058 -0.873317 0.208478 0.0888918 0.0908879 -0.257825 -0.0516196 -0.428917
-0.0461562 -0.295263 -0.439266 -0.500212 -0.557648 -0.623848 -0.634285 -0.0493954 -2.19996 -2.99628
-0.393057 0.184767 0.162087 -0.502562 -1.21996 -1.28143 -0.244027 -0.08475 -0.631074 -0.724316
0.151021 0.070501 0.21523 0.0126717 0.214975 -0.0964671 -0.300177 -0.329217 -0.402531 -0.492149
-0.52936 -3.6376 -3.60048 -0.890425 -0.409792 -0.359097 0.0132529 -1.35498 0.194215 -2.47101
-0.478657 -0.468386 -1.2381 -0.485537 -0.496669 -0.454625 -0.487657 -1.16332 -0.195564 -0.0275831
-2.45269 -3.57984 -0.44497 0.244479 0.238018 -3.3244 -3.64548 0.144487 -0.253361 0.0926124
-0.660367 -0.899038 -0.800656 -0.240624 -2.21812 -0.288172 0.094869 -0.0677357 -1.05947 -0.115499
-0.812301 0.0970221 -1.69498 -0.407279 0.269499 -0.989124 0.180631 -0.729907 -0.109294 -0.00362078
0.0225288 -0.0020399 -0.0559847 0.0722493 -1.37673 -1.98326 -0.16607 -1.9271 -0.917594 -0.707249
-0.0572175 -0.339176 0.264858 -1.70113 0.258915 -0.282849 -2.50217 0.269331 -0.154292 -2.55426
0.00914277 -0.936183 -0.414051 -0.323431 -0.285027 -0.264031 -1.29919 -1.5164 -0.138811 -0.389671
-1.46358 -0.144885 0.00596406 -0.407585 0.131239 -2.75342 -0.36202 -3.84631 0.255427 -0.524835
0.181613 0.143577 0.291758 0.291595 -0.479007 -0.216577 -0.253407 -0.139248 -0.20121 -0.781916
-0.0344904 -0.552031 -0.423694 0.292183 -0.443333 -0.409102 -0.800744 -0.78049 -0.445844 -0.699278
-0.498801 -0.607745 -2.87184 0.27601 0.0868021 -0.302884 -0.335727 -0.0900843 -2.74803 -0.104599
-0.416781 -0.452235 -0.553475 0.0463956 0.0936622 0.204272 0.13118 -0.00304882 0.289369 0.291994
0.278321 -0.0310952 -0.162585 -3.20819 -0.214495 -2.49076 -1.5263 0.301472 0.274887 -0.247422
-2.00899 -0.319449 -0.281504 -0.405353 -0.398984 -0.352994 -0.634815 -0.811049 -0.404163 -0.395128
-0.964136 0.155302 -0.672729 -0.38618 0.0177805 -0.379412 -0.113395 -0.378989 -0.0861385 -1.28242
-0.389923 -0.25184 0.130637 -1.08431 -0.179306 0.199413 -3.69617 -0.643221 -0.5452 0.0783948
-0.339 -0.641886 -0.0932055 -0.230049 0.253937 -0.0552285 0.0486168 0.12287 0.122433 -0.170055
0.2282 -0.304868 -0.893766 0.00558852 -0.210028 -0.930605 0.0430647 -0.491289 -0.120394 0.305658
-0.376479 0.0835035 -1.54756 -3.93293 -0.2058 0.0827613 0.0473775 -0.559521 0.239528 -1.12683
-1.84321 -0.350111 0.168576 0.159218 0.30809 -1.90419 -3.93376 0.24726 -0.60437 0.310048
0.217361 -0.391034 -0.21245 0.278053 -0.469998 -1.16877 0.171528 -0.148646 -0.198651 -0.375578
-0.915524 0.122903 -0.393965 -0.373087 0.160727 0.0764418 -0.180492 0.30124 -2.90922 -1.88369
-2.10746 0.0235481 -0.000826159 -1.60524 -0.52389 -0.470751 0.170294 0.118757 -0.348054 2.35127
1.01876 1.83198 0.0551129 0.564347 1.00689 1.41066 0.287 0.158627 0.299435 0.522902
0.695551 0.688733 0.799139 1.18737 -0.0458615 1.64058 0.873323 -0.208466 -0.0888918 -0.0908944
0.257828 0.0516152 0.428929 0.0461547 0.295263 0.439283 0.500237 0.557681 0.623861 0.634293
0.0493951 2.19996 2.99628 0.393068 -0.18477 -0.16209 0.502557 1.21995 1.28143 0.244033
0.0847506 0.631079 0.724319 -0.0705021 -0.15102 -0.21521 -0.0126725 -0.214985 0.0964683 0.329224
0.300186 0.402522 0.529376 0.492163 3.6376 3.60048 0.890431 0.409811 0.359109 -0.0132556
1.35498 -0.194217 2.47102 0.478688 0.468429 0.454634 1.23811 0.485544 0.496673 0.48766
1.16332 0.195567 0.0275831 2.45269 3.57984 0.445 -0.244481 -0.238021 3.3244 3.64548
-0.144488 0.253358 -0.0926247 0.660381 0.899056 0.800652 0.240629 2.21812 0.288179 -0.0948716
0.0677363 1.05947 0.115488 0.812299 -0.0970297 1.69498 0.407277 -0.269437 0.989142 -0.180624
0.729907 0.109293 0.00361785 -0.0225291 0.00203933 0.0559772 -0.0722499 1.37673 1.98326 0.166067
1.9271 0.917593 0.707269 0.0572182 0.339183 -0.264786 1.70114 -0.258916 0.282853 2.50217
-0.269334 0.154292 2.55426 -0.00914937 0.936184 0.41406 0.285027 0.323444 0.264023 1.2992
1.51641 0.13881 0.389714 1.46358 0.144887 -0.00596406 0.40759 -0.13124 2.75342 0.362038
3.84631 -0.255429 0.524838 -0.143578 -0.181614 -0.291759 0.479004 0.253407 0.216586 -0.291597
0.139249 0.201214 0.781916 0.0344904 0.552031 0.423697 -0.292183 0.443348 0.40917 0.800766
0.7805 0.445844 0.699273 0.498835 0.607772 2.87184 -0.275989 -0.0868021 0.302892 0.335729
0.0900855 2.74803 0.104593 0.416783 0.452237 0.55349 -0.0463997 -0.0936676 -0.204271 -0.131181
0.00304882 -0.289369 -0.291995 -0.278327 0.0310955 0.162588 3.20819 0.2145 2.49076 1.5263
-0.301472 -0.27489 0.247422 0.281508 2.00899 0.319458 0.398989 0.40537 0.634816 0.811064
0.404167 0.395133 0.353028 0.964147 -0.155305 0.672751 0.378992 0.386203 -0.0178052 0.379473
0.113389 0.0861388 1.28242 0.389926 0.25184 -0.130637 1.08431 0.179297 -0.199417 3.69617
0.643219 0.545222 -0.0783995 0.338995 0.641886 0.0932039 0.230053 -0.253922 0.0552275 -0.0486168
-0.12287 -0.122433 0.170048 -0.228194 0.304868 0.893786 -0.00559001 0.21003 0.930608 -0.0430754
0.491299 0.120396 -0.305565 0.37649 -0.0835035 1.54756 3.93293 0.2058 -0.0827644 -0.0473775
0.559539 -0.239528 1.12684 1.84321 0.35011 -0.168577 -0.159224 -0.308091 1.9042 3.93377
-0.247303 0.604371 -0.310048 -0.217363 0.391026 0.212453 -0.278054 0.47 1.16879 -0.171534
0.148649 0.198652 0.375589 0.915524 -0.122905 0.393967 0.373091 -0.160728 -0.0764438 0.180496
-0.301212 2.90922 1.88369 2.10746 -0.0235561 0.000826159 1.60524 0.523894 0.470752 -0.170284
-0.11876 0.348061 -0.324919 -0.324919 -0.307818 -0.307818 -0.290717 -0.290717 -0.273616 -0.273616
-0.256515 -0.256515 -0.239414 -0.239414 -0.222313 -0.222313 -0.188111 -0.188111 -0.17101 -0.17101
-0.153909 -0.153909 -0.136808 -0.136808 -0.119707 -0.119707 -0.102606 -0.102606 -0.085505 -0.085505
-0.068404 -0.068404 -0.051303 -0.051303 -0.034202 -0.034202 -0.017101 -0.017101 -5.33129e-13 -5.33129e-13
0.017101 0.017101 0.034202 0.034202 0.051303 0.051303 0.068404 0.068404 0.085505 0.085505
0.102606 0.102606 0.119707 0.119707 0.136808 0.136808 0.153909 0.153909 0.17101 0.17101
0.188111 0.188111 0.222313 0.222313 0.239414 0.239414 0.256515 0.256515 0.273616 0.273616
0.290717 0.290717 0.307818 0.307818 0.324919 0.324919 -5 -5 -5 -5
-5 -5 -5 -5 -5 -5 -3.66449 -3.66449 -2.32899 -2.32899
-0.993485 -0.993485 0.34202 0.34202 0.34202 0.34202 0.34202 0.34202 0.34202 0.34202
0.34202 0.34202 0.34202 0.34202 0.34202 0.34202 0.34202 0.34202 0.34202 0.34202
0.34202 0.34202 0.34202 0.34202 0.34202 0.34202 0.34202 0.34202 0.34202 0.34202
0.34202 0.34202 0.34202 0.34202 0.34202 0.34202 0.34202 0.34202 0.34202 0.34202
0.34202 0.34202 -0.34202 -0.34202 -0.34202 -0.34202 -0.34202 -0.34202 -0.34202 -0.34202
-0.34202 -0.34202 -0.34202 -0.34202 -0.34202 -0.34202 -0.34202 -0.34202 -0.34202 -0.34202
-0.34202 -0.34202 -0.34202 -0.34202 -0.34202 -0.34202 -0.34202 -0.34202 -0.34202 -0.34202
-0.34202 -0.34202 -0.34202 -0.34202 -0.34202 -0.34202 -0.34202 -0.34202 -0.34202 -0.34202
-0.34202 -0.34202 -1.50652 -1.50652 -2.67101 -2.67101 -3.83551 -3.83551 -2.35127 -1.01876
-1.83197 -0.0551234 -0.564346 -1.00687 -1.41064 -0.287006 -0.158633 -0.299435 -0.522896 -0.695533
-0.68871 -0.799122 -1.18736 0.0458566 -1.64058 -0.873317 0.208478 0.0888918 0.0908879 -0.257825
-0.0516196 -0.428917 -0.0461562 -0.295263 -0.439266 -0.500212 -0.557648 -0.623848 -0.634285 -0.0493954
-2.19996 -2.99628 -0.393057 0.184767 0.162087 -0.502562 -1.21996 -1.28143 -0.244027 -0.08475
-0.631074 -0.724316 0.151021 0.070501 0.21523 0.0126717 0.214975 -0.0964671 -0.300177 -0.329217
-0.402531 -0.492149 -0.52936 -3.6376 -3.60048 -0.890425 -0.409792 -0.359097 0.0132529 -1.35498
0.194215 -2.47101 -0.478657 -0.468386 -1.2381 -0.485537 -0.496669 -0.454625 -0.487657 -1.16332
-0.195564 -0.0275831 -2.45269 -3.57984 -0.44497 0.244479 0.238018 -3.3244 -3.64548 0.144487
-0.253361 0.0926124 -0.660367 -0.899038 -0.800656 -0.240624 -2.21812 -0.288172 0.094869 -0.0677357
-1.05947 -0.115499 -0.812301 0.0970221 -1.69498 -0.407279 0.269499 -0.989124 0.180631 -0.729907
-0.109294 -0.00362078 0.0225288 -0.0020399 -0.0559847 0.0722493 -1.37673 -1.98326 -0.16607 -1.9271
-0.917594 -0.707249 -0.0572175 -0.339176 0.264858 -1.70113 0.258915 -0.282849 -2.50217 0.269331
-0.154292 -2.55426 0.00914277 -0.936183 -0.414051 -0.323431 -0.285027 -0.264031 -1.29919 -1.5164
-0.138811 -0.389671 -1.46358 -0.144885 0.00596406 -0.407585 0.131239 -2.75342 -0.36202 -3.84631
0.255427 -0.524835 0.181613 0.143577 0.291758 0.291595 -0.479007 -0.216577 -0.253407 -0.139248
-0.20121 -0.781916 -0.0344904 -0.552031 -0.423694 0.292183 -0.443333 -0.409102 -0.800744 -0.78049
-0.445844 -0.699278 -0.498801 -0.607745 -2.87184 0.27601 0.0868021 -0.302884 -0.335727 -0.0900843
-2.74803 -0.104599 -0.416781 -0.452235 -0.553475 0.0463956 0.0936622 0.204272 0.13118 -0.00304882
0.289369 0.291994 0.278321 -0.0310952 -0.162585 -3.20819 -0.214495 -2.49076 -1.5263 0.301472
0.274887 -0.247422 -2.00899 -0.319449 -0.281504 -0.405353 -0.398984 -0.352994 -0.634815 -0.811049
-0.404163 -0.395128 -0.964136 0.155302 -0.672729 -0.38618 0.0177805 -0.379412 -0.113395 -0.378989
-0.0861385 -1.28242 -0.389923 -0.25184 0.130637 -1.08431 -0.179306 0.199413 -3.69617 -0.643221
-0.5452 0.0783948 -0.339 -0.641886 -0.0932055 -0.230049 0.253937 -0.0552285 0.0486168 0.12287
0.122433 -0.170055 0.2282 -0.304868 -0.893766 0.00558852 -0.210028 -0.930605 0.0430647 -0.491289
-0.120394 0.305658 -0.376479 0.0835035 -1.54756 -3.93293 -0.2058 0.0827613 0.0473775 -0.559521
0.239528 -1.12683 -1.84321 -0.350111 0.168576 0.159218 0.30809 -1.90419 -3.93376 0.24726
-0.60437 0.310048 0.217361 -0.391034 -0.21245 0.278053 -0.469998 -1.16877 0.171528 -0.148646
-0.198651 -0.375578 -0.915524 0.122903 -0.393965 -0.373087 0.160727 0.0764418 -0.180492 0.30124
-2.90922 -1.88369 -2.10746 0.0235481 -0.000826159 -1.60524 -0.52389 -0.470751 0.170294 0.118757
-0.348054 1.50652 1.50652 2.67101 2.67101 3.83551 3.83551 5 5 5
5 5 5 5 5 5 5 3.66449 3.66449 2.32899
2.32899 0.993485 0.993485 2.35127 1.01876 1.83198 0.0551129 0.564347 1.00689 1.41066
0.287 0.158627 0.299435 0.522902 0.695551 0.688733 0.799139 1.18737 -0.0458615 1.64058
0.873323 -0.208466 -0.0888918 -0.0908944 0.257828 0.0516152 0.428929 0.0461547 0.295263 0.439283
0.500237 0.557681 0.623861 0.634293 0.0493951 2.19996 2.99628 0.393068 -0.18477 -0.16209
0.502557 1.21995 1.28143 0.244033 0.0847506 0.631079 0.724319 -0.0705021 -0.15102 -0.21521
-0.0126725 -0.214985 0.0964683 0.329224 0.300186 0.402522 0.529376 0.492163 3.6376 3.60048
0.890431 0.409811 0.359109 -0.0132556 1.35498 -0.194217 2.47102 0.478688 0.468429 0.454634
1.23811 0.485544 0.496673 0.48766 1.16332 0.195567 0.0275831 2.45269 3.57984 0.445
-0.244481 -0.238021 3.3244 3.64548 -0.144488 0.253358 -0.0926247 0.660381 0.899056 0.800652
0.240629 2.21812 0.288179 -0.0948716 0.0677363 1.05947 0.115488 0.812299 -0.0970297 1.69498
0.407277 -0.269437 0.989142 -0.180624 0.729907 0.109293 0.00361785 -0.0225291 0.00203933 0.0559772
-0.0722499 1.37673 1.98326 0.166067 1.9271 0.917593 0.707269 0.0572182 0.339183 -0.264786
1.70114 -0.258916 0.282853 2.50217 -0.269334 0.154292 2.55426 -0.00914937 0.936184 0.41406
0.285027 0.323444 0.264023 1.2992 1.51641 0.13881 0.389714 1.46358 0.144887 -0.00596406
0.40759 -0.13124 2.75342 0.362038 3.84631 -0.255429 0.524838 -0.143578 -0.181614 -0.291759
0.479004 0.253407 0.216586 -0.291597 0.139249 0.201214 0.781916 0.0344904 0.552031 0.423697
-0.292183 0.443348 0.40917 0.800766 0.7805 0.445844 0.699273 0.498835 0.607772 2.87184
-0.275989 -0.0868021 0.302892 0.335729 0.0900855 2.74803 0.104593 0.416783 0.452237 0.55349
-0.0463997 -0.0936676 -0.204271 -0.131181 0.00304882 -0.289369 -0.291995 -0.278327 0.0310955 0.162588
3.20819 0.2145 2.49076 1.5263 -0.301472 -0.27489 0.247422 0.281508 2.00899 0.319458
0.398989 0.40537 0.634816 0.811064 0.404167 0.395133 0.353028 0.964147 -0.155305 0.672751
0.378992 0.386203 -0.0178052 0.379473 0.113389 0.0861388 1.28242 0.389926 0.25184 -0.130637
1.08431 0.179297 -0.199417 3.69617 0.643219 0.545222 -0.0783995 0.338995 0.641886 0.0932039
0.230053 -0.253922 0.0552275 -0.0486168 -0.12287 -0.122433 0.170048 -0.228194 0.304868 0.893786
-0.00559001 0.21003 0.930608 -0.0430754 0.491299 0.120396 -0.305565 0.37649 -0.0835035 1.54756
3.93293 0.2058 -0.0827644 -0.0473775 0.559539 -0.239528 1.12684 1.84321 0.35011 -0.168577
-0.159224 -0.308091 1.9042 3.93377 -0.247303 0.604371 -0.310048 -0.217363 0.391026 0.212453
-0.278054 0.47 1.16879 -0.171534 0.148649 0.198652 0.375589 0.915524 -0.122905 0.393967
0.373091 -0.160728 -0.0764438 0.180496 -0.301212 2.90922 1.88369 2.10746 -0.0235561 0.000826159
1.60524 0.523894 0.470752 -0.170284 -0.11876 0.348061 -2.35127 -2.35127 -1.01876 -1.01876
-1.83197 -1.83197 -0.0551234 -0.0551234 -0.564346 -0.564346 -1.00687 -1.00687 -1.41064 -1.41064
-0.287006 -0.287006 -0.158633 -0.158633 -0.299435 -0.299435 -0.522896 -0.522896 -0.695533 -0.695533
-0.68871 -0.68871 -0.799122 -0.799122 -1.18736 -1.18736 0.0458566 0.0458566 -1.64058 -1.64058
-0.873317 -0.873317 0.208478 0.208478 0.0888918 0.0888918 0.0908879 0.0908879 -0.257825 -0.257825
-0.0516196 -0.0516196 -0.428917 -0.428917 -0.0461562 -0.0461562 -0.295263 -0.295263 -0.439266 -0.439266
-0.500212 -0.500212 -0.557648 -0.557648 -0.623848 -0.623848 -0.634285 -0.634285 -0.0493954 -0.0493954
-2.19996 -2.19996 -2.99628 -2.99628 -0.393057 -0.393057 0.184767 0.184767 0.162087 0.162087
-0.502562 -0.502562 -1.21996 -1.21996 -1.28143 -1.28143 -0.244027 -0.244027 -0.08475 -0.08475
-0.631074 -0.631074 -0.724316 -0.724316 0.151021 0.151021 0.070501 0.070501 0.21523 0.21523
0.0126717 0.0126717 0.214975 0.214975 -0.0964671 -0.0964671 -0.300177 -0.300177 -0.329217 -0.329217
-0.402531 -0.402531 -0.492149 -0.492149 -0.52936 -0.52936 -3.6376 -3.6376 -3.60048 -3.60048
-0.890425 -0.890425 -0.409792 -0.409792 -0.359097 -0.359097 0.0132529 0.0132529 -1.35498 -1.35498
0.194215 0.194215 -2.47101 -2.47101 -0.478657 -0.478657 -0.468386 -0.468386 -1.2381 -1.2381
-0.485537 -0.485537 -0.496669 -0.496669 -0.454625 -0.454625 -0.487657 -0.487657 -1.16332 -1.16332
-0.195564 -0.195564 -0.0275831 -0.0275831 -2.45269 -2.45269 -3.57984 -3.57984 -0.44497 -0.44497
0.244479 0.244479 0.238018 0.238018 -3.3244 -3.3244 -3.64548 -3.64548 0.144487 0.144487
-0.253361 -0.253361 0.0926124 0.0926124 -0.660367 -0.660367 -0.899038 -0.899038 -0.800656 -0.800656
-0.240624 -0.240624 -2.21812 -2.21812 -0.288172 -0.288172 0.094869 0.094869 -0.0677357 -0.0677357
-1.05947 -1.05947 -0.115499 -0.115499 -0.812301 -0.812301 0.0970221 0.0970221 -1.69498 -1.69498
-0.407279 -0.407279 0.269499 0.269499 -0.989124 -0.989124 0.180631 0.180631 -0.729907 -0.729907
-0.109294 -0.109294 -0.00362078 -0.00362078 0.0225288 0.0225288 -0.0020399 -0.0020399 -0.0559847 -0.0559847
0.0722493 0.0722493 -1.37673 -1.37673 -1.98326 -1.98326 -0.16607 -0.16607 -1.9271 -1.9271
-0.917594 -0.917594 -0.707249 -0.707249 -0.0572175 -0.0572175 -0.339176 -0.339176 0.264858 0.264858
-1.70113 -1.70113 0.258915 0.258915 -0.282849 -0.282849 -2.50217 -2.50217 0.269331 0.269331
-0.154292 -0.154292 -2.55426 -2.55426 0.00914277 0.00914277 -0.936183 -0.936183 -0.414051 -0.414051
-0.323431 -0.323431 -0.285027 -0.285027 -0.264031 -0.264031 -1.29919 -1.29919 -1.5164 -1.5164
-0.138811 -0.138811 -0.389671 -0.389671 -1.46358 -1.46358 -0.144885 -0.144885 0.00596406 0.00596406
-0.407585 -0.407585 0.131239 0.131239 -2.75342 -2.75342 -0.36202 -0.36202 -3.84631 -3.84631
0.255427 0.255427 -0.524835 -0.524835 0.181613 0.181613 0.143577 0.143577 0.291758 0.291758
0.291595 0.291595 -0.479007 -0.479007 -0.216577 -0.216577 -0.253407 -0.253407 -0.139248 -0.139248
-0.20121 -0.20121 -0.781916 -0.781916 -0.0344904 -0.0344904 -0.552031 -0.552031 -0.423694 -0.423694
0.292183 0.292183 -0.443333 -0.443333 -0.409102 -0.409102 -0.800744 -0.800744 -0.78049 -0.78049
-0.445844 -0.445844 -0.699278 -0.699278 -0.498801 -0.498801 -0.607745 -0.607745 -2.87184 -2.87184
0.27601 0.27601 0.0868021 0.0868021 -0.302884 -0.302884 -0.335727 -0.335727 -0.0900843 -0.0900843
-2.74803 -2.74803 -0.104599 -0.104599 -0.416781 -0.416781 -0.452235 -0.452235 -0.553475 -0.553475
0.0463956 0.0463956 0.0936622 0.0936622 0.204272 0.204272 0.13118 0.13118 -0.00304882 -0.00304882
0.289369 0.289369 0.291994 0.291994 0.278321 0.278321 -0.0310952 -0.0310952 -0.162585 -0.162585
-3.20819 -3.20819 -0.214495 -0.214495 -2.49076 -2.49076 -1.5263 -1.5263 0.301472 0.301472
0.274887 0.274887 -0.247422 -0.247422 -2.00899 -2.00899 -0.319449 -0.319449 -0.281504 -0.281504
-0.405353 -0.405353 -0.398984 -0.398984 -0.352994 -0.352994 -0.634815 -0.634815 -0.811049 -0.811049
-0.404163 -0.404163 -0.395128 -0.395128 -0.964136 -0.964136 0.155302 0.155302 -0.672729 -0.672729
-0.38618 -0.38618 0.0177805 0.0177805 -0.379412 -0.379412 -0.113395 -0.113395 -0.378989 -0.378989
-0.0861385 -0.0861385 -1.28242 -1.28242 -0.389923 -0.389923 -0.25184 -0.25184 0.130637 0.130637
-1.08431 -1.08431 -0.179306 -0.179306 0.199413 0.199413 -3.69617 -3.69617 -0.643221 -0.643221
-0.5452 -0.5452 0.0783948 0.0783948 -0.339 -0.339 -0.641886 -0.641886 -0.0932055 -0.0932055
-0.230049 -0.230049 0.253937 0.253937 -0.0552285 -0.0552285 0.0486168 0.0486168 0.12287 0.12287
0.122433 0.122433 -0.170055 -0.170055 0.2282 0.2282 -0.304868 -0.304868 -0.893766 -0.893766
0.00558852 0.00558852 -0.210028 -0.210028 -0.930605 -0.930605 0.0430647 0.0430647 -0.491289 -0.491289
-0.120394 -0.120394 0.305658 0.305658 -0.376479 -0.376479 0.0835035 0.0835035 -1.54756 -1.54756
-3.93293 -3.93293 -0.2058 -0.2058 0.0827613 0.0827613 0.0473775 0.0473775 -0.559521 -0.559521
0.239528 0.239528 -1.12683 -1.12683 -1.84321 -1.84321 -0.350111 -0.350111 0.168576 0.168576
0.159218 0.159218 0.30809 0.30809 -1.90419 -1.90419 -3.93376 -3.93376 0.24726 0.24726
-0.60437 -0.60437 0.310048 0.310048 0.217361 0.217361 -0.391034 -0.391034 -0.21245 -0.21245
0.278053 0.278053 -0.469998 -0.469998 -1.16877 -1.16877 0.171528 0.171528 -0.148646 -0.148646
-0.198651 -0.198651 -0.375578 -0.375578 -0.915524 -0.915524 0.122903 0.122903 -0.393965 -0.393965