<VTKFile type="UnstructuredGrid" version="1.0">
<UnstructuredGrid>
<FieldData>
<DataArray type="Float64" Name="TIME" NumberOfTuples="1" format="ascii" RangeMin="1" RangeMax="1">
1
</DataArray>
</FieldData>
<Piece NumberOfPoints="15756" NumberOfCells="12500">
<Points>
<DataArray type="Float64" NumberOfComponents="3" format="ascii">
0 0 400 100 0 400 100 25 400 0
25 400 0 0 403.75 100 0 403.75 100 25
403.75 0 25 403.75 1 0 400 2 0 400
3 0 400 4 0 400 5 0 400 6
0 400 7 0 400 8 0 400 9 0
400 10 0 400 11 0 400 12 0 400
13 0 400 14 0 400 15 0 400 16
0 400 17 0 400 18 0 400 19 0
400 20 0 400 21 0 400 22 0 400
23 0 400 24 0 400 25 0 400 26
0 400 27 0 400 28 0 400 29 0
400 30 0 400 31 0 400 32 0 400
33 0 400 34 0 400 35 0 400 36
0 400 37 0 400 38 0 400 39 0
400 40 0 400 41 0 400 42 0 400
43 0 400 44 0 400 45 0 400 46
0 400 47 0 400 48 0 400 49 0
400 50 0 400 51 0 400 52 0 400
53 0 400 54 0 400 55 0 400 56
0 400 57 0 400 58 0 400 59 0
400 60 0 400 61 0 400 62 0 400
63 0 400 64 0 400 65 0 400 66
0 400 67 0 400 68 0 400 69 0
400 70 0 400 71 0 400 72 0 400
73 0 400 74 0 400 75 0 400 76
0 400 77 0 400 78 0 400 79 0
400 80 0 400 81 0 400 82 0 400
83 0 400 84 0 400 85 0 400 86
0 400 87 0 400 88 0 400 89 0
400 90 0 400 91 0 400 92 0 400
93 0 400 94 0 400 95 0 400 96
0 400 97 0 400 98 0 400 99 0
400 100 1 400 100 2 400 100 3 400
100 4 400 100 5 400 100 6 400 100
7 400 100 8 400 100 9 400 100 10
400 100 11 400 100 12 400 100 13 400
100 14 400 100 15 400 100 16 400 100
17 400 100 18 400 100 19 400 100 20
400 100 21 400 100 22 400 100 23 400
100 24 400 99 25 400 98 25 400 97
25 400 96 25 400 95 25 400 94 25
400 93 25 400 92 25 400 91 25 400
90 25 400 89 25 400 88 25 400 87
25 400 86 25 400 85 25 400 84 25
400 83 25 400 82 25 400 81 25 400
80 25 400 79 25 400 78 25 400 77
25 400 76 25 400 75 25 400 74 25
400 73 25 400 72 25 400 71 25 400
70 25 400 69 25 400 68 25 400 67
25 400 66 25 400 65 25 400 64 25
400 63 25 400 62 25 400 61 25 400
60 25 400 59 25 400 58 25 400 57
25 400 56 25 400 55 25 400 54 25
400 53 25 400 52 25 400 51 25 400
50 25 400 49 25 400 48 25 400 47
25 400 46 25 400 45 25 400 44 25
400 43 25 400 42 25 400 41 25 400
40 25 400 39 25 400 38 25 400 37
25 400 36 25 400 35 25 400 34 25
400 33 25 400 32 25 400 31 25 400
30 25 400 29 25 400 28 25 400 27
25 400 26 25 400 25 25 400 24 25
400 23 25 400 22 25 400 21 25 400
20 25 400 19 25 400 18 25 400 17
25 400 16 25 400 15 25 400 14 25
400 13 25 400 12 25 400 11 25 400
10 25 400 9 25 400 8 25 400 7
25 400 6 25 400 5 25 400 4 25
400 3 25 400 2 25 400 1 25 400
0 24 400 0 23 400 0 22 400 0
21 400 0 20 400 0 19 400 0 18
400 0 17 400 0 16 400 0 15 400
0 14 400 0 13 400 0 12 400 0
11 400 0 10 400 0 9 400 0 8
400 0 7 400 0 6 400 0 5 400
0 4 400 0 3 400 0 2 400 0
1 400 1 0 403.75 2 0 403.75 3 0
403.75 4 0 403.75 5 0 403.75 6 0 403.75
7 0 403.75 8 0 403.75 9 0 403.75 10
0 403.75 11 0 403.75 12 0 403.75 13 0
403.75 14 0 403.75 15 0 403.75 16 0 403.75
17 0 403.75 18 0 403.75 19 0 403.75 20
0 403.75 21 0 403.75 22 0 403.75 23 0
403.75 24 0 403.75 25 0 403.75 26 0 403.75
27 0 403.75 28 0 403.75 29 0 403.75 30
0 403.75 31 0 403.75 32 0 403.75 33 0
403.75 34 0 403.75 35 0 403.75 36 0 403.75
37 0 403.75 38 0 403.75 39 0 403.75 40
0 403.75 41 0 403.75 42 0 403.75 43 0
403.75 44 0 403.75 45 0 403.75 46 0 403.75
47 0 403.75 48 0 403.75 49 0 403.75 50
0 403.75 51 0 403.75 52 0 403.75 53 0
403.75 54 0 403.75 55 0 403.75 56 0 403.75
57 0 403.75 58 0 403.75 59 0 403.75 60
0 403.75 61 0 403.75 62 0 403.75 63 0
403.75 64 0 403.75 65 0 403.75 66 0 403.75
67 0 403.75 68 0 403.75 69 0 403.75 70
0 403.75 71 0 403.75 72 0 403.75 73 0
403.75 74 0 403.75 75 0 403.75 76 0 403.75
77 0 403.75 78 0 403.75 79 0 403.75 80
0 403.75 81 0 403.75 82 0 403.75 83 0
403.75 84 0 403.75 85 0 403.75 86 0 403.75
87 0 403.75 88 0 403.75 89 0 403.75 90
0 403.75 91 0 403.75 92 0 403.75 93 0
403.75 94 0 403.75 95 0 403.75 96 0 403.75
97 0 403.75 98 0 403.75 99 0 403.75 100
1 403.75 100 2 403.75 100 3 403.75 100 4
403.75 100 5 403.75 100 6 403.75 100 7 403.75
100 8 403.75 100 9 403.75 100 10 403.75 100
11 403.75 100 12 403.75 100 13 403.75 100 14
403.75 100 15 403.75 100 16 403.75 100 17 403.75
100 18 403.75 100 19 403.75 100 20 403.75 100
21 403.75 100 22 403.75 100 23 403.75 100 24
403.75 99 25 403.75 98 25 403.75 97 25 403.75
96 25 403.75 95 25 403.75 94 25 403.75 93
25 403.75 92 25 403.75 91 25 403.75 90 25
403.75 89 25 403.75 88 25 403.75 87 25 403.75
86 25 403.75 85 25 403.75 84 25 403.75 83
25 403.75 82 25 403.75 81 25 403.75 80 25
403.75 79 25 403.75 78 25 403.75 77 25 403.75
76 25 403.75 75 25 403.75 74 25 403.75 73
25 403.75 72 25 403.75 71 25 403.75 70 25
403.75 69 25 403.75 68 25 403.75 67 25 403.75
66 25 403.75 65 25 403.75 64 25 403.75 63
25 403.75 62 25 403.75 61 25 403.75 60 25
403.75 59 25 403.75 58 25 403.75 57 25 403.75
56 25 403.75 55 25 403.75 54 25 403.75 53
25 403.75 52 25 403.75 51 25 403.75 50 25
403.75 49 25 403.75 48 25 403.75 47 25 403.75
46 25 403.75 45 25 403.75 44 25 403.75 43
25 403.75 42 25 403.75 41 25 403.75 40 25
403.75 39 25 403.75 38 25 403.75 37 25 403.75
36 25 403.75 35 25 403.75 34 25 403.75 33
25 403.75 32 25 403.75 31 25 403.75 30 25
403.75 29 25 403.75 28 25 403.75 27 25 403.75
26 25 403.75 25 25 403.75 24 25 403.75 23
25 403.75 22 25 403.75 21 25 403.75 20 25
403.75 19 25 403.75 18 25 403.75 17 25 403.75
16 25 403.75 15 25 403.75 14 25 403.75 13
25 403.75 12 25 403.75 11 25 403.75 10 25
403.75 9 25 403.75 8 25 403.75 7 25 403.75
6 25 403.75 5 25 403.75 4 25 403.75 3
25 403.75 2 25 403.75 1 25 403.75 0 24
403.75 0 23 403.75 0 22 403.75 0 21 403.75
0 20 403.75 0 19 403.75 0 18 403.75 0
17 403.75 0 16 403.75 0 15 403.75 0 14
403.75 0 13 403.75 0 12 403.75 0 11 403.75
0 10 403.75 0 9 403.75 0 8 403.75 0
7 403.75 0 6 403.75 0 5 403.75 0 4
403.75 0 3 403.75 0 2 403.75 0 1 403.75
0 0 400.75 0 0 401.5 0 0 402.25 0
0 403 100 0 400.75 100 0 401.5 100 0
402.25 100 0 403 100 25 400.75 100 25 401.5
100 25 402.25 100 25 403 0 25 400.75 0
25 401.5 0 25 402.25 0 25 403 1 1
400 1 2 400 1 3 400 1 4 400
1 5 400 1 6 400 1 7 400 1
8 400 1 9 400 1 10 400 1 11
400 1 12 400 1 13 400 1 14 400
1 15 400 1 16 400 1 17 400 1
18 400 1 19 400 1 20 400 1 21
400 1 22 400 1 23 400 1 24 400
2 1 400 2 2 400 2 3 400 2
4 400 2 5 400 2 6 400 2 7
400 2 8 400 2 9 400 2 10 400
2 11 400 2 12 400 2 13 400 2
14 400 2 15 400 2 16 400 2 17
400 2 18 400 2 19 400 2 20 400
2 21 400 2 22 400 2 23 400 2
24 400 3 1 400 3 2 400 3 3
400 3 4 400 3 5 400 3 6 400
3 7 400 3 8 400 3 9 400 3
10 400 3 11 400 3 12 400 3 13
400 3 14 400 3 15 400 3 16 400
3 17 400 3 18 400 3 19 400 3
20 400 3 21 400 3 22 400 3 23
400 3 24 400 4 1 400 4 2 400
4 3 400 4 4 400 4 5 400 4
6 400 4 7 400 4 8 400 4 9
400 4 10 400 4 11 400 4 12 400
4 13 400 4 14 400 4 15 400 4
16 400 4 17 400 4 18 400 4 19
400 4 20 400 4 21 400 4 22 400
4 23 400 4 24 400 5 1 400 5
2 400 5 3 400 5 4 400 5 5
400 5 6 400 5 7 400 5 8 400
5 9 400 5 10 400 5 11 400 5
12 400 5 13 400 5 14 400 5 15
400 5 16 400 5 17 400 5 18 400
5 19 400 5 20 400 5 21 400 5
22 400 5 23 400 5 24 400 6 1
400 6 2 400 6 3 400 6 4 400
6 5 400 6 6 400 6 7 400 6
8 400 6 9 400 6 10 400 6 11
400 6 12 400 6 13 400 6 14 400
6 15 400 6 16 400 6 17 400 6
18 400 6 19 400 6 20 400 6 21
400 6 22 400 6 23 400 6 24 400
7 1 400 7 2 400 7 3 400 7
4 400 7 5 400 7 6 400 7 7
400 7 8 400 7 9 400 7 10 400
7 11 400 7 12 400 7 13 400 7
14 400 7 15 400 7 16 400 7 17
400 7 18 400 7 19 400 7 20 400
7 21 400 7 22 400 7 23 400 7
24 400 8 1 400 8 2 400 8 3
400 8 4 400 8 5 400 8 6 400
8 7 400 8 8 400 8 9 400 8
10 400 8 11 400 8 12 400 8 13
400 8 14 400 8 15 400 8 16 400
8 17 400 8 18 400 8 19 400 8
20 400 8 21 400 8 22 400 8 23
400 8 24 400 9 1 400 9 2 400
9 3 400 9 4 400 9 5 400 9
6 400 9 7 400 9 8 400 9 9
400 9 10 400 9 11 400 9 12 400
9 13 400 9 14 400 9 15 400 9
16 400 9 17 400 9 18 400 9 19
400 9 20 400 9 21 400 9 22 400
9 23 400 9 24 400 10 1 400 10
2 400 10 3 400 10 4 400 10 5
400 10 6 400 10 7 400 10 8 400
10 9 400 10 10 400 10 11 400 10
12 400 10 13 400 10 14 400 10 15
400 10 16 400 10 17 400 10 18 400
10 19 400 10 20 400 10 21 400 10
22 400 10 23 400 10 24 400 11 1
400 11 2 400 11 3 400 11 4 400
11 5 400 11 6 400 11 7 400 11
8 400 11 9 400 11 10 400 11 11
400 11 12 400 11 13 400 11 14 400
11 15 400 11 16 400 11 17 400 11
18 400 11 19 400 11 20 400 11 21
400 11 22 400 11 23 400 11 24 400
12 1 400 12 2 400 12 3 400 12
4 400 12 5 400 12 6 400 12 7
400 12 8 400 12 9 400 12 10 400
12 11 400 12 12 400 12 13 400 12
14 400 12 15 400 12 16 400 12 17
400 12 18 400 12 19 400 12 20 400
12 21 400 12 22 400 12 23 400 12
24 400 13 1 400 13 2 400 13 3
400 13 4 400 13 5 400 13 6 400
13 7 400 13 8 400 13 9 400 13
10 400 13 11 400 13 12 400 13 13
400 13 14 400 13 15 400 13 16 400
13 17 400 13 18 400 13 19 400 13
20 400 13 21 400 13 22 400 13 23
400 13 24 400 14 1 400 14 2 400
14 3 400 14 4 400 14 5 400 14
6 400 14 7 400 14 8 400 14 9
400 14 10 400 14 11 400 14 12 400
14 13 400 14 14 400 14 15 400 14
16 400 14 17 400 14 18 400 14 19
400 14 20 400 14 21 400 14 22 400
14 23 400 14 24 400 15 1 400 15
2 400 15 3 400 15 4 400 15 5
400 15 6 400 15 7 400 15 8 400
15 9 400 15 10 400 15 11 400 15
12 400 15 13 400 15 14 400 15 15
400 15 16 400 15 17 400 15 18 400
15 19 400 15 20 400 15 21 400 15
22 400 15 23 400 15 24 400 16 1
400 16 2 400 16 3 400 16 4 400
16 5 400 16 6 400 16 7 400 16
8 400 16 9 400 16 10 400 16 11
400 16 12 400 16 13 400 16 14 400
16 15 400 16 16 400 16 17 400 16
18 400 16 19 400 16 20 400 16 21
400 16 22 400 16 23 400 16 24 400
17 1 400 17 2 400 17 3 400 17
4 400 17 5 400 17 6 400 17 7
400 17 8 400 17 9 400 17 10 400
17 11 400 17 12 400 17 13 400 17
14 400 17 15 400 17 16 400 17 17
400 17 18 400 17 19 400 17 20 400
17 21 400 17 22 400 17 23 400 17
24 400 18 1 400 18 2 400 18 3
400 18 4 400 18 5 400 18 6 400
18 7 400 18 8 400 18 9 400 18
10 400 18 11 400 18 12 400 18 13
400 18 14 400 18 15 400 18 16 400
18 17 400 18 18 400 18 19 400 18
20 400 18 21 400 18 22 400 18 23
400 18 24 400 19 1 400 19 2 400
19 3 400 19 4 400 19 5 400 19
[...]
<PointData>
<DataArray type="Float64" Name="press" NumberOfComponents="1" format="ascii">
100 94.9182 60 101.383 100 58.1307 60 64.595 108.409 107.47
106.761 105.971 105.284 104.69 104.178 103.731 103.337 102.986 102.67 102.384
102.122 101.882 101.66 101.455 101.263 101.084 100.916 100.758 100.609 100.468
100.335 100.208 100.088 99.9733 99.8638 99.7591 99.6589 99.5627 99.4702 99.3812
99.2953 99.2125 99.1323 99.0545 98.9791 98.9058 98.8343 98.7646 98.6965 98.6297
98.5642 98.4999 98.4365 98.3739 98.312 98.2507 98.1899 98.1294 98.0692 98.009
97.9488 97.8886 97.8281 97.7673 97.706 97.6443 97.582 97.519 97.4552 97.3905
97.325 97.2584 97.1908 97.1221 97.0523 96.9813 96.909 96.8356 96.7609 96.685
96.6079 96.5297 96.4505 96.3703 96.2893 96.2076 96.1253 96.0428 95.9602 95.8778
95.796 95.715 95.6353 95.5573 95.4814 95.4082 95.338 95.2716 95.2093 95.1518
95.0996 95.0531 95.0129 94.9793 94.9528 94.9337 94.9221 94.9118 94.8926 94.8604
94.8149 94.7557 94.6822 94.5938 94.4895 94.3683 94.2286 94.0689 93.887 93.6802
93.445 93.177 92.87 92.5157 92.1016 91.6077 90.9994 90.2047 89.083 87.0887
83.9763 83.9781 87.0959 89.0993 90.2337 91.0448 91.6733 92.191 92.6327 93.0184
93.3607 93.668 93.9466 94.2008 94.4345 94.6502 94.8504 95.0369 95.2112 95.3747
95.5285 95.6735 95.8106 95.9405 96.0639 96.1812 96.2931 96.4 96.5022 96.6002
96.6943 96.7848 96.8719 96.956 97.0373 97.116 97.1924 97.2666 97.3387 97.4091
97.4779 97.5452 97.6112 97.676 97.7398 97.8027 97.8648 97.9264 97.9874 98.0481
98.1085 98.1687 98.229 98.2893 98.3498 98.4106 98.4718 98.5335 98.5958 98.6588
98.7225 98.7871 98.8526 98.9191 98.9866 99.0553 99.1252 99.1963 99.2687 99.3423
99.4173 99.4935 99.571 99.6498 99.7297 99.8107 99.8928 99.9758 100.059 100.144
100.228 100.313 100.397 100.481 100.564 100.646 100.726 100.804 100.879 100.951
101.02 101.084 101.143 101.196 101.244 101.285 101.32 101.347 101.367 101.379
101.389 101.409 101.442 101.489 101.55 101.625 101.717 101.824 101.949 102.092
102.257 102.444 102.657 102.899 103.174 103.489 103.851 104.269 104.758 105.331
106.001 106.778 107.478 108.411 75.796 72.6193 70.5766 69.4144 68.5816 67.9355
67.4029 66.9484 66.5515 66.1993 65.8831 65.5965 65.335 65.0947 64.8728 64.667
64.4753 64.2962 64.1282 63.9703 63.8213 63.6806 63.5473 63.4208 63.3004 63.1858
63.0763 62.9716 62.8714 62.7752 62.6827 62.5937 62.5078 62.425 62.3448 62.267
62.1916 62.1183 62.0468 61.9771 61.909 61.8422 61.7767 61.7124 61.649 61.5864
61.5245 61.4632 61.4024 61.3419 61.2817 61.2215 61.1613 61.1011 61.0406 60.9798
60.9185 60.8568 60.7945 60.7315 60.6677 60.603 60.5375 60.4709 60.4033 60.3346
60.2648 60.1938 60.1215 60.0481 59.9734 59.8975 59.8204 59.7422 59.663 59.5828
59.5018 59.4201 59.3378 59.2553 59.1727 59.0903 59.0085 58.9275 58.8478 58.7698
58.6939 58.6207 58.5505 58.4841 58.4218 58.3643 58.3121 58.2656 58.2254 58.1918
58.1653 58.1462 58.1346 58.1243 58.1051 58.0729 58.0274 57.9682 57.8947 57.8063
57.702 57.5808 57.4411 57.2815 57.0996 56.8928 56.6578 56.3902 56.0844 55.7331
55.3267 54.8529 54.2968 53.6478 52.8982 52.2375 51.3636 51.3654 52.2448 52.9145
53.6769 54.3422 54.9184 55.416 55.8501 56.2328 56.574 56.8808 57.1592 57.4134
57.647 57.8627 58.0629 58.2494 58.4237 58.5872 58.741 58.886 59.0231 59.153
59.2764 59.3937 59.5056 59.6125 59.7147 59.8127 59.9068 59.9973 60.0844 60.1685
60.2498 60.3285 60.4049 60.4791 60.5512 60.6216 60.6904 60.7577 60.8237 60.8885
60.9523 61.0152 61.0773 61.1389 61.1999 61.2606 61.321 61.3812 61.4415 61.5018
61.5623 61.6231 61.6843 61.746 61.8083 61.8713 61.935 61.9996 62.0651 62.1316
62.1991 62.2678 62.3377 62.4088 62.4812 62.5548 62.6298 62.706 62.7835 62.8623
62.9422 63.0232 63.1053 63.1883 63.2719 63.3562 63.4408 63.5254 63.6099 63.6938
63.7769 63.8587 63.9387 64.0166 64.0918 64.1638 64.2321 64.296 64.3551 64.4087
64.4565 64.4978 64.5323 64.5595 64.5792 64.5911 64.6016 64.6214 64.6546 64.7014
64.7624 64.838 64.929 65.0364 65.1612 65.3049 65.4694 65.6566 65.8696 66.1117
66.3876 66.7036 67.0683 67.4945 68.0026 68.6282 69.4441 70.5934 72.6268 75.7979
100 100 100 100 87.5607 80.2032 72.8457 65.4882 60 60
60 60 94.025 86.6675 79.31 71.9525 107.47 107.399 106.637 105.916
105.27 104.713 104.236 103.825 103.469 103.158 102.885 102.645 102.434 102.248
102.085 101.942 101.818 101.711 101.62 101.545 101.485 101.438 101.405 101.385
107.393 106.88 106.301 105.674 105.098 104.587 104.141 103.751 103.409 103.109
102.845 102.611 102.405 102.223 102.063 101.922 101.8 101.695 101.605 101.531
101.471 101.425 101.393 101.373 106.622 106.292 105.827 105.327 104.841 104.394
103.991 103.633 103.314 103.031 102.78 102.556 102.358 102.182 102.026 101.89
101.771 101.668 101.581 101.508 101.45 101.404 101.372 101.353 105.888 105.652
105.314 104.927 104.532 104.153 103.801 103.48 103.19 102.928 102.693 102.482
102.293 102.125 101.976 101.845 101.73 101.631 101.547 101.476 101.419 101.376
101.344 101.326 105.225 105.059 104.811 104.515 104.2 103.886 103.584 103.302
103.042 102.804 102.587 102.391 102.214 102.056 101.915 101.79 101.68 101.585
101.504 101.436 101.381 101.339 101.309 101.291 104.648 104.527 104.343 104.116
103.865 103.607 103.352 103.107 102.877 102.663 102.466 102.286 102.122 101.974
101.842 101.724 101.62 101.53 101.453 101.388 101.336 101.296 101.267 101.25
104.147 104.056 103.917 103.74 103.539 103.327 103.113 102.903 102.702 102.511
102.334 102.17 102.02 101.883 101.76 101.65 101.552 101.468 101.395 101.333
101.284 101.245 101.218 101.202 103.707 103.638 103.53 103.39 103.229 103.055
102.875 102.695 102.52 102.352 102.194 102.046 101.909 101.784 101.67 101.568
101.477 101.398 101.329 101.272 101.225 101.189 101.163 101.148 103.319 103.265
103.179 103.068 102.937 102.792 102.641 102.488 102.336 102.189 102.048 101.916
101.792 101.678 101.574 101.48 101.396 101.322 101.258 101.205 101.161 101.127
101.103 101.088 102.971 102.929 102.86 102.77 102.662 102.543 102.415 102.284
102.153 102.024 101.9 101.782 101.671 101.568 101.473 101.387 101.309 101.241
101.182 101.133 101.092 101.06 101.038 101.024 102.659 102.624 102.568 102.494
102.405 102.305 102.198 102.086 101.973 101.86 101.751 101.646 101.547 101.454
101.368 101.289 101.219 101.156 101.102 101.056 101.018 100.989 100.968 100.956
102.374 102.346 102.3 102.239 102.165 102.081 101.99 101.894 101.796 101.699
101.602 101.509 101.421 101.337 101.26 101.189 101.125 101.068 101.018 100.976
100.941 100.914 100.895 100.883 102.115 102.091 102.053 102.002 101.94 101.869
101.792 101.71 101.625 101.54 101.456 101.373 101.295 101.22 101.151 101.087
101.028 100.977 100.931 100.893 100.861 100.836 100.818 100.808 101.876 101.856
101.824 101.782 101.729 101.669 101.603 101.533 101.459 101.385 101.311 101.239
101.169 101.103 101.04 100.983 100.93 100.883 100.842 100.807 100.778 100.755
100.739 100.73 101.655 101.638 101.612 101.576 101.531 101.48 101.424 101.363
101.299 101.235 101.17 101.106 101.045 100.985 100.93 100.878 100.831 100.789
100.751 100.72 100.693 100.673 100.658 100.649 101.45 101.436 101.413 101.383
101.345 101.301 101.253 101.2 101.145 101.089 101.032 100.976 100.922 100.869
100.82 100.774 100.731 100.693 100.66 100.631 100.607 100.589 100.575 100.567
101.259 101.247 101.228 101.202 101.17 101.132 101.09 101.045 100.997 100.948
100.899 100.849 100.801 100.755 100.711 100.669 100.632 100.597 100.567 100.541
100.52 100.503 100.491 100.484 101.08 101.07 101.054 101.032 101.004 100.972
100.936 100.896 100.855 100.812 100.769 100.725 100.683 100.642 100.603 100.566
100.532 100.502 100.475 100.452 100.432 100.417 100.406 100.4 100.913 100.904
100.89 100.871 100.847 100.819 100.788 100.754 100.718 100.681 100.643 100.605
100.567 100.531 100.496 100.464 100.434 100.407 100.382 100.362 100.344 100.331
100.321 100.315 100.755 100.748 100.736 100.719 100.699 100.675 100.648 100.618
100.587 100.554 100.521 100.488 100.455 100.423 100.392 100.363 100.336 100.312
100.29 100.272 100.256 100.244 100.235 100.23 100.607 100.6 100.59 100.576
100.558 100.537 100.514 100.488 100.461 100.432 100.403 100.374 100.345 100.316
100.289 100.264 100.24 100.218 100.199 100.183 100.169 100.158 100.15 100.145
100.466 100.461 100.452 100.44 100.424 100.406 100.386 100.363 100.34 100.315
100.289 100.263 100.238 100.213 100.189 100.166 100.145 100.126 100.109 100.094
100.082 100.072 100.065 100.061 100.333 100.328 100.321 100.31 100.297 100.281
100.263 100.244 100.223 100.201 100.179 100.156 100.134 100.112 100.091 100.071
100.052 100.035 100.02 100.007 99.9957 99.9871 99.9808 99.977 100.207 100.203
100.196 100.187 100.175 100.162 100.146 100.129 100.111 100.092 100.072 100.052
100.033 100.013 99.9947 99.977 99.9605 99.9454 99.932 99.9203 99.9106 99.9029
99.8973 99.8939 100.087 100.083 100.077 100.069 100.059 100.047 100.034 100.019
100.003 99.9865 99.9693 99.9518 99.9345 99.9174 99.901 99.8854 99.8708 99.8574
99.8455 99.8352 99.8265 99.8197 99.8147 99.8117 99.9722 99.9691 99.964 99.957
99.9483 99.9379 99.9262 99.9132 99.8993 99.8847 99.8696 99.8543 99.8391 99.8241
99.8096 99.7958 99.7829 99.7711 99.7605 99.7513 99.7437 99.7376 99.7332 99.7306
99.8629 99.8602 99.8558 99.8497 99.842 99.833 99.8227 99.8114 99.7992 99.7864
99.7732 99.7598 99.7464 99.7332 99.7204 99.7082 99.6968 99.6864 99.6771 99.6689
99.6622 99.6568 99.6529 99.6505 99.7583 99.756 99.7521 99.7468 99.7401 99.7322
99.7233 99.7134 99.7027 99.6915 99.6799 99.6681 99.6563 99.6447 99.6334 99.6227
99.6126 99.6034 99.5952 99.588 99.582 99.5772 99.5738 99.5717 99.6582 99.6561
99.6527 99.6481 99.6423 99.6354 99.6275 99.6189 99.6095 99.5997 99.5895 99.5791
99.5688 99.5585 99.5486 99.5392 99.5303 99.5222 99.5149 99.5085 99.5032 99.499
99.496 99.4941 99.5621 99.5603 99.5573 99.5532 99.5482 99.5421 99.5352 99.5276
99.5195 99.5108 99.5019 99.4928 99.4837 99.4747 99.4659 99.4576 99.4498 99.4426
99.4362 99.4306 99.4259 99.4221 99.4194 99.4178 99.4697 99.4681 99.4655 99.462
99.4575 99.4522 99.4462 99.4395 99.4324 99.4248 99.4169 99.4089 99.4009 99.393
99.3853 99.3779 99.371 99.3647 99.359 99.3541 99.3499 99.3466 99.3442 99.3428
99.3807 99.3793 99.3771 99.374 99.3701 99.3654 99.3602 99.3543 99.348 99.3414
99.3345 99.3274 99.3204 99.3134 99.3066 99.3001 99.294 99.2885 99.2834 99.2791
99.2754 99.2725 99.2704 99.2691 99.2949 99.2937 99.2918 99.289 99.2856 99.2815
99.2769 99.2718 99.2662 99.2604 99.2543 99.2481 99.2419 99.2358 99.2298 99.2241
99.2187 99.2138 99.2094 99.2055 99.2023 99.1997 99.1978 99.1967 99.2121 99.211
99.2093 99.2069 99.2039 99.2003 99.1963 99.1918 99.1869 99.1817 99.1764 99.1709
99.1655 99.1601 99.1548 99.1497 99.145 99.1407 99.1367 99.1333 99.1305 99.1282
99.1265 99.1255 99.1319 99.131 99.1295 99.1274 99.1247 99.1216 99.118 99.1141
99.1098 99.1052 99.1005 99.0957 99.0909 99.0861 99.0815 99.077 99.0728 99.069
99.0655 99.0625 99.06 99.058 99.0565 99.0556 99.0543 99.0535 99.0521 99.0503
99.0479 99.0452 99.042 99.0385 99.0347 99.0307 99.0266 99.0223 99.0181 99.0139
99.0098 99.0058 99.0021 98.9987 98.9957 98.993 98.9908 98.989 98.9877 98.9869
98.9789 98.9782 98.977 98.9753 98.9733 98.9708 98.9681 98.965 98.9616 98.9581
98.9544 98.9507 98.9469 98.9432 98.9396 98.9361 98.9328 98.9298 98.9271 98.9247
98.9227 98.9211 98.92 98.9193 98.9056 98.9049 98.9039 98.9024 98.9006 98.8985
98.896 98.8933 98.8903 98.8872 98.8839 98.8806 98.8773 98.874 98.8707 98.8677
98.8648 98.8621 98.8597 98.8576 98.8558 98.8544 98.8534 98.8528 98.8341 98.8336
98.8326 98.8314 98.8298 98.8278 98.8257 98.8232 98.8206 98.8178 98.815 98.812
98.809 98.8061 98.8032 98.8005 98.7979 98.7955 98.7934 98.7915 98.79 98.7887
98.7878 98.7873 98.7644 98.7639 98.7631 98.762 98.7605 98.7588 98.7569 98.7547
98.7524 98.7499 98.7474 98.7447 98.7421 98.7395 98.7369 98.7345 98.7322 98.7301
98.7281 98.7265 98.7251 98.724 98.7232 98.7227 98.6963 98.6959 98.6951 98.6941
98.6928 98.6913 98.6896 98.6876 98.6856 98.6833 98.681 98.6787 98.6763 98.674
98.6717 98.6695 98.6674 98.6655 98.6638 98.6623 98.6611 98.6601 98.6594 98.6589
98.6296 98.6292 98.6285 98.6276 98.6265 98.6251 98.6235 98.6218 98.6199 98.6179
98.6159 98.6138 98.6116 98.6095 98.6075 98.6055 98.6036 98.6019 98.6004 98.599
98.5979 98.597 98.5963 98.5959 98.5641 98.5637 98.5631 98.5623 98.5613 98.56
98.5586 98.5571 98.5554 98.5536 98.5517 98.5498 98.5479 98.5459 98.5441 98.5423
98.5406 98.5391 98.5377 98.5364 98.5354 98.5346 98.534 98.5337 98.4997 98.4994
98.4989 98.4981 98.4972 98.496 98.4948 98.4933 98.4918 98.4901 98.4884 98.4867
98.4849 98.4832 98.4815 98.4798 98.4783 98.4769 98.4756 98.4745 98.4736 98.4728
98.4723 98.4719 98.4364 98.436 98.4355 98.4349 98.434 98.4329 98.4318 98.4304
98.429 98.4275 98.4259 98.4243 98.4227 98.4211 98.4195 98.418 98.4166 98.4153
98.4141 98.4131 98.4122 98.4115 98.411 98.4107 98.3738 98.3735 98.373 98.3724
98.3716 98.3706 98.3695 98.3683 98.367 98.3656 98.3641 98.3626 98.3611 98.3596
98.3581 98.3567 98.3554 98.3542 98.3531 98.3521 98.3513 98.3507 98.3502 98.3499
98.3119 98.3117 98.3112 98.3106 98.3099 98.3089 98.3079 98.3067 98.3055 98.3042
98.3028 98.3014 98.2999 98.2985 98.2971 98.2958 98.2946 98.2934 98.2924 98.2915
98.2907 98.2901 98.2897 98.2894 98.2507 98.2504 98.25 98.2494 98.2487 98.2478
98.2468 98.2457 98.2445 98.2432 98.2419 98.2405 98.2392 98.2378 98.2365 98.2352
98.234 98.2329 98.2319 98.2311 98.2303 98.2297 98.2293 98.2291 98.1898 98.1896
98.1892 98.1886 98.1879 98.187 98.1861 98.185 98.1838 98.1826 98.1813 98.18
98.1787 98.1773 98.1761 98.1748 98.1737 98.1726 98.1716 98.1708 98.17 98.1695
98.1691 98.1688 98.1293 98.1291 98.1287 98.1281 98.1274 98.1266 98.1256 98.1246
98.1234 98.1222 98.1209 98.1196 98.1183 98.117 98.1157 98.1145 98.1133 98.1123
98.1113 98.1105 98.1098 98.1092 98.1088 98.1086 98.0691 98.0688 98.0684 98.0679
98.0671 98.0663 98.0653 98.0643 98.0631 98.0619 98.0606 98.0593 98.058 98.0566
98.0554 98.0541 98.053 98.0519 98.0509 98.0501 98.0494 98.0488 98.0484 98.0481
98.0089 98.0087 98.0082 98.0077 98.0069 98.0061 98.0051 98.004 98.0028 98.0015
98.0002 97.9989 97.9975 97.9962 97.9949 97.9936 97.9924 97.9913 97.9903 97.9895
97.9887 97.9882 97.9877 97.9875 97.9487 97.9485 97.948 97.9474 97.9467 97.9458
97.9448 97.9436 97.9424 97.9411 97.9397 97.9383 97.9369 97.9355 97.9341 97.9328
97.9316 97.9304 97.9294 97.9285 97.9277 97.9271 97.9267 97.9264 97.8885 97.8882
97.8877 97.8871 97.8863 97.8854 97.8843 97.8831 97.8818 97.8804 97.8789 97.8775
97.876 97.8745 97.873 97.8717 97.8703 97.8691 97.868 97.8671 97.8663 97.8657
97.8652 97.8649 97.828 97.8277 97.8272 97.8265 97.8257 97.8246 97.8235 97.8222
97.8208 97.8193 97.8178 97.8162 97.8146 97.813 97.8115 97.81 97.8086 97.8073
97.8061 97.8051 97.8042 97.8036 97.8031 97.8028 97.7671 97.7668 97.7663 97.7656
97.7646 97.7636 97.7623 97.7609 97.7594 97.7578 97.7561 97.7544 97.7527 97.751
97.7493 97.7477 97.7462 97.7448 97.7435 97.7424 97.7415 97.7407 97.7402 97.7399
97.7059 97.7056 97.705 97.7042 97.7032 97.702 97.7006 97.6991 97.6975 97.6957
97.6939 97.692 97.6901 97.6882 97.6864 97.6847 97.683 97.6815 97.6801 97.6789
97.6778 97.677 97.6764 97.6761 97.6442 97.6438 97.6432 97.6423 97.6412 97.6399
97.6383 97.6367 97.6349 97.6329 97.6309 97.6289 97.6268 97.6247 97.6227 97.6207
97.6189 97.6172 97.6157 97.6144 97.6132 97.6123 97.6117 97.6113 97.5818 97.5814
97.5807 97.5797 97.5785 97.577 97.5754 97.5735 97.5715 97.5694 97.5671 97.5648
97.5625 97.5602 97.558 97.5558 97.5538 97.5519 97.5502 97.5487 97.5475 97.5465
97.5458 97.5453 97.5188 97.5183 97.5175 97.5165 97.5151 97.5135 97.5116 97.5095
97.5073 97.5049 97.5024 97.4999 97.4973 97.4947 97.4922 97.4898 97.4875 97.4854
97.4835 97.4819 97.4805 97.4794 97.4786 97.4781 97.455 97.4545 97.4536 97.4524
97.4508 97.449 97.4469 97.4446 97.4421 97.4394 97.4366 97.4338 97.4309 97.428
97.4252 97.4225 97.4199 97.4176 97.4155 97.4136 97.412 97.4108 97.4099 97.4093
97.3903 97.3897 97.3888 97.3874 97.3857 97.3836 97.3813 97.3787 97.3759 97.3728
97.3697 97.3665 97.3632 97.36 97.3568 97.3538 97.3509 97.3483 97.3459 97.3438
97.342 97.3406 97.3396 97.339 97.3248 97.3241 97.323 97.3214 97.3195 97.3172
97.3146 97.3116 97.3084 97.3051 97.3015 97.2979 97.2942 97.2906 97.287 97.2836
97.2803 97.2773 97.2746 97.2722 97.2702 97.2686 97.2675 97.2668 97.2582 97.2574
97.2562 97.2544 97.2523 97.2497 97.2467 97.2434 97.2398 97.2359 97.232 97.2279
97.2237 97.2196 97.2155 97.2117 97.208 97.2046 97.2015 97.1988 97.1966 97.1948
97.1934 97.1926 97.1906 97.1897 97.1883 97.1863 97.1839 97.1809 97.1776 97.1738
97.1698 97.1654 97.1609 97.1563 97.1516 97.1469 97.1423 97.1379 97.1337 97.1299
97.1264 97.1233 97.1208 97.1187 97.1172 97.1163 97.1218 97.1208 97.1192 97.117
97.1143 97.1109 97.1071 97.1029 97.0983 97.0934 97.0883 97.083 97.0777 97.0724
97.0672 97.0622 97.0575 97.0531 97.0491 97.0456 97.0427 97.0404 97.0387 97.0377
97.0519 97.0508 97.049 97.0465 97.0434 97.0396 97.0353 97.0305 97.0253 97.0197
97.0139 97.008 97.0019 96.9959 96.99 96.9843 96.9789 96.974 96.9695 96.9655
96.9622 96.9595 96.9576 96.9564 96.9808 96.9796 96.9776 96.9747 96.9712 96.9669
96.962 96.9566 96.9507 96.9444 96.9378 96.931 96.9242 96.9173 96.9106 96.9042
96.898 96.8924 96.8872 96.8827 96.8789 96.8759 96.8737 96.8724 96.9085 96.9071
96.9048 96.9016 96.8976 96.8928 96.8873 96.8811 96.8744 96.8673 96.8598 96.8521
96.8443 96.8365 96.8289 96.8215 96.8146 96.8081 96.8022 96.7971 96.7928 96.7893
96.7868 96.7853 96.835 96.8334 96.8308 96.8272 96.8226 96.8172 96.8109 96.804
96.7964 96.7883 96.7798 96.771 96.7622 96.7533 96.7446 96.7362 96.7283 96.7209
96.7142 96.7084 96.7034 96.6995 96.6966 96.6949 96.7603 96.7585 96.7555 96.7514
96.7463 96.7401 96.733 96.7251 96.7165 96.7073 96.6977 96.6878 96.6777 96.6676
96.6577 96.6481 96.6391 96.6307 96.623 96.6163 96.6107 96.6062 96.6029 96.6009
96.6843 96.6823 96.6789 96.6743 96.6685 96.6615 96.6535 96.6445 96.6348 96.6243
96.6134 96.6021 96.5907 96.5792 96.5679 96.557 96.5467 96.5371 96.5283 96.5207
96.5142 96.509 96.5053 96.503 96.6072 96.6049 96.6011 96.5959 96.5893 96.5814
96.5723 96.5622 96.5511 96.5393 96.5269 96.5141 96.501 96.488 96.4751 96.4627
96.4509 96.4399 96.4299 96.4211 96.4137 96.4078 96.4035 96.4009 96.5289 96.5263
96.522 96.5161 96.5087 96.4998 96.4895 96.4781 96.4655 96.4521 96.4381 96.4235
96.4087 96.3938 96.3791 96.3649 96.3514 96.3389 96.3274 96.3174 96.3089 96.3021
96.2971 96.2941 96.4495 96.4466 96.4418 96.4352 96.4268 96.4167 96.4051 96.3922
96.378 96.3628 96.3468 96.3303 96.3134 96.2965 96.2798 96.2636 96.2481 96.2337
96.2207 96.2091 96.1993 96.1915 96.1859 96.1824 96.3692 96.3659 96.3605 96.3531
96.3436 96.3323 96.3192 96.3045 96.2885 96.2713 96.2532 96.2344 96.2152 96.1959
96.1769 96.1584 96.1407 96.1242 96.1092 96.0959 96.0847 96.0757 96.0692 96.0652
96.288 96.2844 96.2783 96.2699 96.2592 96.2465 96.2317 96.2152 96.1971 96.1776
96.1571 96.1357 96.1139 96.092 96.0702 96.0491 96.0288 96.0099 95.9927 95.9775
95.9645 95.9542 95.9466 95.942 96.2062 96.2021 96.1952 96.1858 96.1738 96.1595
96.1429 96.1242 96.1038 96.0818 96.0585 96.0343 96.0095 95.9845 95.9597 95.9355
95.9123 95.8906 95.8708 95.8533 95.8384 95.8264 95.8177 95.8124 96.1238 96.1192
96.1115 96.101 96.0875 96.0714 96.0527 96.0317 96.0087 95.9838 95.9575 95.93
95.9018 95.8734 95.845 95.8173 95.7908 95.7659 95.743 95.7228 95.7056 95.6918
95.6817 95.6756 96.0411 96.0359 96.0274 96.0155 96.0005 95.9824 95.9615 95.9379
95.9119 95.8838 95.8541 95.8229 95.7909 95.7585 95.7261 95.6944 95.664 95.6353
95.609 95.5856 95.5657 95.5497 95.538 95.5309 95.9583 95.9525 95.943 95.9298
95.913 95.8928 95.8693 95.8428 95.8136 95.782 95.7483 95.7131 95.6767 95.6398
95.6028 95.5665 95.5315 95.4985 95.4681 95.4411 95.418 95.3994 95.3858 95.3775
95.8757 95.8693 95.8587 95.844 95.8253 95.8027 95.7764 95.7467 95.7139 95.6784
95.6404 95.6005 95.5592 95.5172 95.475 95.4334 95.3931 95.3551 95.3199 95.2886
95.2617 95.2401 95.2242 95.2145 95.7936 95.7865 95.7748 95.7584 95.7376 95.7124
95.6832 95.65 95.6132 95.5732 95.5305 95.4854 95.4386 95.3907 95.3425 95.2948
95.2485 95.2045 95.1638 95.1274 95.096 95.0707 95.0521 95.0407 95.7124 95.7046
95.6916 95.6735 95.6504 95.6224 95.5898 95.5528 95.5118 95.4669 95.4188 95.3679
95.3149 95.2604 95.2054 95.1506 95.0973 95.0464 94.9991 94.9566 94.92 94.8903