# vtk DataFile Version 2.0
domain, Created by Gmsh 4.13.1 
ASCII
DATASET UNSTRUCTURED_GRID
POINTS 216 double
1 0 0
2 0 0
2 1 0
1 1 0
1 0 1
2 0 1
2 1 1
1 1 1
1.2 0 0
1.4 0 0
1.6 0 0
1.8 0 0
2 0.2 0
2 0.4 0
2 0.6000000000000001 0
2 0.8 0
1.8 1 0
1.6 1 0
1.4 1 0
1.2 1 0
1 0.8 0
1 0.6 0
1 0.3999999999999999 0
1 0.2 0
1 0 0.2
1 0 0.4
1 0 0.6
1 0 0.8
2 0 0.2
2 0 0.4
2 0 0.6
2 0 0.8
1.2 0 1
1.4 0 1
1.6 0 1
1.8 0 1
2 1 0.2
2 1 0.4
2 1 0.6
2 1 0.8
2 0.2 1
2 0.4 1
2 0.6000000000000001 1
2 0.8 1
1 1 0.2
1 1 0.4
1 1 0.6
1 1 0.8
1.8 1 1
1.6 1 1
1.4 1 1
1.2 1 1
1 0.8 1
1 0.6 1
1 0.3999999999999999 1
1 0.2 1
1.2 0.1999999999999999 0
1.2 0.3999999999999999 0
1.2 0.6 0
1.2 0.8 0
1.4 0.2 0
1.4 0.4 0
1.4 0.6000000000000001 0
1.4 0.8 0
1.6 0.2 0
1.6 0.4 0
1.6 0.6000000000000001 0
1.6 0.8 0
1.8 0.2 0
1.8 0.4 0
1.8 0.6000000000000001 0
1.8 0.8 0
1.2 0 0.2
1.2 0 0.4
1.2 0 0.6
1.2 0 0.8
1.4 0 0.2
1.4 0 0.4
1.4 0 0.6
1.4 0 0.8
1.6 0 0.2
1.6 0 0.4
1.6 0 0.6
1.6 0 0.8
1.8 0 0.2
1.8 0 0.4
1.8 0 0.6
1.8 0 0.8
2 0.2 0.2
2 0.2 0.4
2 0.2 0.6
2 0.2 0.8
2 0.4 0.2
2 0.4 0.4
2 0.4 0.6
2 0.4 0.8
2 0.6000000000000001 0.2
2 0.6000000000000001 0.4
2 0.6000000000000001 0.6
2 0.6000000000000001 0.8
2 0.8 0.2
2 0.8 0.4
2 0.8 0.6
2 0.8 0.8
1.8 1 0.2
1.8 1 0.4
1.8 1 0.6
1.8 1 0.8
1.6 1 0.2
1.6 1 0.4
1.6 1 0.6
1.6 1 0.8
1.4 1 0.2
1.4 1 0.4
1.4 1 0.6
1.4 1 0.8
1.2 1 0.2
1.2 1 0.4
1.2 1 0.6
1.2 1 0.8
1 0.8 0.2
1 0.8 0.4
1 0.8 0.6
1 0.8 0.8
1 0.6 0.2
1 0.6 0.4
1 0.6 0.6
1 0.6 0.8
1 0.3999999999999999 0.2
1 0.3999999999999999 0.4
1 0.3999999999999999 0.6
1 0.3999999999999999 0.8
1 0.2 0.2
1 0.2 0.4
1 0.2 0.6
1 0.2 0.8
1.2 0.1999999999999999 1
1.2 0.3999999999999999 1
1.2 0.6 1
1.2 0.8 1
1.4 0.2 1
1.4 0.4 1
1.4 0.6000000000000001 1
1.4 0.8 1
1.6 0.2 1
1.6 0.4 1
1.6 0.6000000000000001 1
1.6 0.8 1
1.8 0.2 1
1.8 0.4 1
1.8 0.6000000000000001 1
1.8 0.8 1
1.2 0.1999999999999999 0.2
1.2 0.1999999999999999 0.4
1.2 0.1999999999999999 0.6
1.2 0.1999999999999999 0.8
1.2 0.3999999999999999 0.2
1.2 0.3999999999999999 0.4
1.2 0.3999999999999999 0.6
1.2 0.3999999999999999 0.8
1.2 0.6 0.2
1.2 0.6 0.4
1.2 0.6 0.6
1.2 0.6 0.8
1.2 0.8 0.2
1.2 0.8 0.4
1.2 0.8 0.6
1.2 0.8 0.8
1.4 0.2 0.2
1.4 0.2 0.4
1.4 0.2 0.6
1.4 0.2 0.8
1.4 0.4 0.2
1.4 0.4 0.4
1.4 0.4 0.6
1.4 0.4 0.8
1.4 0.6000000000000001 0.2
1.4 0.6000000000000001 0.4
1.4 0.6000000000000001 0.6
1.4 0.6000000000000001 0.8
1.4 0.8 0.2
1.4 0.8 0.4
1.4 0.8 0.6
1.4 0.8 0.8
1.6 0.2 0.2
1.6 0.2 0.4
1.6 0.2 0.6
1.6 0.2 0.8
1.6 0.4 0.2
1.6 0.4 0.4
1.6 0.4 0.6
1.6 0.4 0.8
1.6 0.6000000000000001 0.2
1.6 0.6000000000000001 0.4
1.6 0.6000000000000001 0.6
1.6 0.6000000000000001 0.8
1.6 0.8 0.2
1.6 0.8 0.4
1.6 0.8 0.6
1.6 0.8 0.8
1.8 0.2 0.2
1.8 0.2 0.4
1.8 0.2 0.6
1.8 0.2 0.8
1.8 0.4 0.2
1.8 0.4 0.4
1.8 0.4 0.6
1.8 0.4 0.8
1.8 0.6000000000000001 0.2
1.8 0.6000000000000001 0.4
1.8 0.6000000000000001 0.6
1.8 0.6000000000000001 0.8
1.8 0.8 0.2
1.8 0.8 0.4
1.8 0.8 0.6
1.8 0.8 0.8

CELLS 275 1875
4 0 8 56 23
4 23 56 57 22
4 22 57 58 21
4 21 58 59 20
4 20 59 19 3
4 8 9 60 56
4 56 60 61 57
4 57 61 62 58
4 58 62 63 59
4 59 63 18 19
4 9 10 64 60
4 60 64 65 61
4 61 65 66 62
4 62 66 67 63
4 63 67 17 18
4 10 11 68 64
4 64 68 69 65
4 65 69 70 66
4 66 70 71 67
4 67 71 16 17
4 11 1 12 68
4 68 12 13 69
4 69 13 14 70
4 70 14 15 71
4 71 15 2 16
4 0 8 72 24
4 24 72 73 25
4 25 73 74 26
4 26 74 75 27
4 27 75 32 4
4 8 9 76 72
4 72 76 77 73
4 73 77 78 74
4 74 78 79 75
4 75 79 33 32
4 9 10 80 76
4 76 80 81 77
4 77 81 82 78
4 78 82 83 79
4 79 83 34 33
4 10 11 84 80
4 80 84 85 81
4 81 85 86 82
4 82 86 87 83
4 83 87 35 34
4 11 1 28 84
4 84 28 29 85
4 85 29 30 86
4 86 30 31 87
4 87 31 5 35
4 1 12 88 28
4 28 88 89 29
4 29 89 90 30
4 30 90 91 31
4 31 91 40 5
4 12 13 92 88
4 88 92 93 89
4 89 93 94 90
4 90 94 95 91
4 91 95 41 40
4 13 14 96 92
4 92 96 97 93
4 93 97 98 94
4 94 98 99 95
4 95 99 42 41
4 14 15 100 96
4 96 100 101 97
4 97 101 102 98
4 98 102 103 99
4 99 103 43 42
4 15 2 36 100
4 100 36 37 101
4 101 37 38 102
4 102 38 39 103
4 103 39 6 43
4 2 16 104 36
4 36 104 105 37
4 37 105 106 38
4 38 106 107 39
4 39 107 48 6
4 16 17 108 104
4 104 108 109 105
4 105 109 110 106
4 106 110 111 107
4 107 111 49 48
4 17 18 112 108
4 108 112 113 109
4 109 113 114 110
4 110 114 115 111
4 111 115 50 49
4 18 19 116 112
4 112 116 117 113
4 113 117 118 114
4 114 118 119 115
4 115 119 51 50
4 19 3 44 116
4 116 44 45 117
4 117 45 46 118
4 118 46 47 119
4 119 47 7 51
4 3 20 120 44
4 44 120 121 45
4 45 121 122 46
4 46 122 123 47
4 47 123 52 7
4 20 21 124 120
4 120 124 125 121
4 121 125 126 122
4 122 126 127 123
4 123 127 53 52
4 21 22 128 124
4 124 128 129 125
4 125 129 130 126
4 126 130 131 127
4 127 131 54 53
4 22 23 132 128
4 128 132 133 129
4 129 133 134 130
4 130 134 135 131
4 131 135 55 54
4 23 0 24 132
4 132 24 25 133
4 133 25 26 134
4 134 26 27 135
4 135 27 4 55
4 4 32 136 55
4 55 136 137 54
4 54 137 138 53
4 53 138 139 52
4 52 139 51 7
4 32 33 140 136
4 136 140 141 137
4 137 141 142 138
4 138 142 143 139
4 139 143 50 51
4 33 34 144 140
4 140 144 145 141
4 141 145 146 142
4 142 146 147 143
4 143 147 49 50
4 34 35 148 144
4 144 148 149 145
4 145 149 150 146
4 146 150 151 147
4 147 151 48 49
4 35 5 40 148
4 148 40 41 149
4 149 41 42 150
4 150 42 43 151
4 151 43 6 48
8 0 8 56 23 24 72 152 132
8 24 72 152 132 25 73 153 133
8 25 73 153 133 26 74 154 134
8 26 74 154 134 27 75 155 135
8 27 75 155 135 4 32 136 55
8 23 56 57 22 132 152 156 128
8 132 152 156 128 133 153 157 129
8 133 153 157 129 134 154 158 130
8 134 154 158 130 135 155 159 131
8 135 155 159 131 55 136 137 54
8 22 57 58 21 128 156 160 124
8 128 156 160 124 129 157 161 125
8 129 157 161 125 130 158 162 126
8 130 158 162 126 131 159 163 127
8 131 159 163 127 54 137 138 53
8 21 58 59 20 124 160 164 120
8 124 160 164 120 125 161 165 121
8 125 161 165 121 126 162 166 122
8 126 162 166 122 127 163 167 123
8 127 163 167 123 53 138 139 52
8 20 59 19 3 120 164 116 44
8 120 164 116 44 121 165 117 45
8 121 165 117 45 122 166 118 46
8 122 166 118 46 123 167 119 47
8 123 167 119 47 52 139 51 7
8 8 9 60 56 72 76 168 152
8 72 76 168 152 73 77 169 153
8 73 77 169 153 74 78 170 154
8 74 78 170 154 75 79 171 155
8 75 79 171 155 32 33 140 136
8 56 60 61 57 152 168 172 156
8 152 168 172 156 153 169 173 157
8 153 169 173 157 154 170 174 158
8 154 170 174 158 155 171 175 159
8 155 171 175 159 136 140 141 137
8 57 61 62 58 156 172 176 160
8 156 172 176 160 157 173 177 161
8 157 173 177 161 158 174 178 162
8 158 174 178 162 159 175 179 163
8 159 175 179 163 137 141 142 138
8 58 62 63 59 160 176 180 164
8 160 176 180 164 161 177 181 165
8 161 177 181 165 162 178 182 166
8 162 178 182 166 163 179 183 167
8 163 179 183 167 138 142 143 139
8 59 63 18 19 164 180 112 116
8 164 180 112 116 165 181 113 117
8 165 181 113 117 166 182 114 118
8 166 182 114 118 167 183 115 119
8 167 183 115 119 139 143 50 51
8 9 10 64 60 76 80 184 168
8 76 80 184 168 77 81 185 169
8 77 81 185 169 78 82 186 170
8 78 82 186 170 79 83 187 171
8 79 83 187 171 33 34 144 140
8 60 64 65 61 168 184 188 172
8 168 184 188 172 169 185 189 173
8 169 185 189 173 170 186 190 174
8 170 186 190 174 171 187 191 175
8 171 187 191 175 140 144 145 141
8 61 65 66 62 172 188 192 176
8 172 188 192 176 173 189 193 177
8 173 189 193 177 174 190 194 178
8 174 190 194 178 175 191 195 179
8 175 191 195 179 141 145 146 142
8 62 66 67 63 176 192 196 180
8 176 192 196 180 177 193 197 181
8 177 193 197 181 178 194 198 182
8 178 194 198 182 179 195 199 183
8 179 195 199 183 142 146 147 143
8 63 67 17 18 180 196 108 112
8 180 196 108 112 181 197 109 113
8 181 197 109 113 182 198 110 114
8 182 198 110 114 183 199 111 115
8 183 199 111 115 143 147 49 50
8 10 11 68 64 80 84 200 184
8 80 84 200 184 81 85 201 185
8 81 85 201 185 82 86 202 186
8 82 86 202 186 83 87 203 187
8 83 87 203 187 34 35 148 144
8 64 68 69 65 184 200 204 188
8 184 200 204 188 185 201 205 189
8 185 201 205 189 186 202 206 190
8 186 202 206 190 187 203 207 191
8 187 203 207 191 144 148 149 145
8 65 69 70 66 188 204 208 192
8 188 204 208 192 189 205 209 193
8 189 205 209 193 190 206 210 194
8 190 206 210 194 191 207 211 195
8 191 207 211 195 145 149 150 146
8 66 70 71 67 192 208 212 196
8 192 208 212 196 193 209 213 197
8 193 209 213 197 194 210 214 198
8 194 210 214 198 195 211 215 199
8 195 211 215 199 146 150 151 147
8 67 71 16 17 196 212 104 108
8 196 212 104 108 197 213 105 109
8 197 213 105 109 198 214 106 110
8 198 214 106 110 199 215 107 111
8 199 215 107 111 147 151 48 49
8 11 1 12 68 84 28 88 200
8 84 28 88 200 85 29 89 201
8 85 29 89 201 86 30 90 202
8 86 30 90 202 87 31 91 203
8 87 31 91 203 35 5 40 148
8 68 12 13 69 200 88 92 204
8 200 88 92 204 201 89 93 205
8 201 89 93 205 202 90 94 206
8 202 90 94 206 203 91 95 207
8 203 91 95 207 148 40 41 149
8 69 13 14 70 204 92 96 208
8 204 92 96 208 205 93 97 209
8 205 93 97 209 206 94 98 210
8 206 94 98 210 207 95 99 211
8 207 95 99 211 149 41 42 150
8 70 14 15 71 208 96 100 212
8 208 96 100 212 209 97 101 213
8 209 97 101 213 210 98 102 214
8 210 98 102 214 211 99 103 215
8 211 99 103 215 150 42 43 151
8 71 15 2 16 212 100 36 104
8 212 100 36 104 213 101 37 105
8 213 101 37 105 214 102 38 106
8 214 102 38 106 215 103 39 107
8 215 103 39 107 151 43 6 48

CELL_TYPES 275
9
9
9
9
9
9
9
9
9
9
9
9
9
9
9
9
9
9
9
9
9
9
9
9
9
9
9
9
9
9
9
9
9
9
9
9
9
9
9
9
9
9
9
9
9
9
9
9
9
9
9
9
9
9
9
9
9
9
9
9
9
9
9
9
9
9
9
9
9
9
9
9
9
9
9
9
9
9
9
9
9
9
9
9
9
9
9
9
9
9
9
9
9
9
9
9
9
9
9
9
9
9
9
9
9
9
9
9
9
9
9
9
9
9
9
9
9
9
9
9
9
9
9
9
9
9
9
9
9
9
9
9
9
9
9
9
9
9
9
9
9
9
9
9
9
9
9
9
9
9
12
12
12
12
12
12
12
12
12
12
12
12
12
12
12
12
12
12
12
12
12
12
12
12
12
12
12
12
12
12
12
12
12
12
12
12
12
12
12
12
12
12
12
12
12
12
12
12
12
12
12
12
12
12
12
12
12
12
12
12
12
12
12
12
12
12
12
12
12
12
12
12
12
12
12
12
12
12
12
12
12
12
12
12
12
12
12
12
12
12
12
12
12
12
12
12
12
12
12
12
12
12
12
12
12
12
12
12
12
12
12
12
12
12
12
12
12
12
12
12
12
12
12
12
12

CELL_DATA 275
SCALARS CellEntityIds int 1
LOOKUP_TABLE default
2
2
2
2
2
2
2
2
2
2
2
2
2
2
2
2
2
2
2
2
2
2
2
2
2
2
2
2
2
2
2
2
2
2
2
2
2
2
2
2
2
2
2
2
2
2
2
2
2
2
2
2
2
2
2
2
2
2
2
2
2
2
2
2
2
2
2
2
2
2
2
2
2
2
2
2
2
2
2
2
2
2
2
2
2
2
2
2
2
2
2
2
2
2
2
2
2
2
2
2
1
1
1
1
1
1
1
1
1
1
1
1
1
1
1
1
1
1
1
1
1
1
1
1
1
2
2
2
2
2
2
2
2
2
2
2
2
2
2
2
2
2
2
2
2
2
2
2
2
2
1
1
1
1
1
1
1
1
1
1
1
1
1
1
1
1
1
1
1
1
1
1
1
1
1
1
1
1
1
1
1
1
1
1
1
1
1
1
1
1
1
1
1
1
1
1
1
1
1
1
1
1
1
1
1
1
1
1
1
1
1
1
1
1
1
1
1
1
1
1
1
1
1
1
1
1
1
1
1
1
1
1
1
1
1
1
1
1
1
1
1
1
1
1
1
1
1
1
1
1
1
1
1
1
1
1
1
1
1
1
1
1
1
1
1
1
1
1
1
1
1
1
1
1
1
