# vtk DataFile Version 2.0
domain, Created by Gmsh 4.13.1 
ASCII
DATASET UNSTRUCTURED_GRID
POINTS 750 double
0 0 0
0.5 0 0
0.5 1 0
0 1 0
0 0 1
0.5 0 1
0.5 1 1
0 1 1
0.5 0 0
1 0 0
1 1 0
0.5 1 0
0.5 0 1
1 0 1
1 1 1
0.5 1 1
0.25 0 0
0.3872889057889954 0.2387920982717959 0
0.3486121811340027 0.4999999999999995 0
0.3872889057889953 0.7612079017282039 0
0.4348529673138253 0.1152464228848232 0
0.358333786800701 0.3679721081027862 0
0.3583337868007009 0.6320278918972132 0
0.4348529673138255 0.8847535771151773 0
0.25 1 0
0 0.75 0
0 0.5 0
0 0.25 0
0 0.875 0
0 0.625 0
0 0.375 0
0 0.125 0
0 0 0.25
0 0 0.5
0 0 0.75
0 0 0.125
0 0 0.375
0 0 0.625
0 0 0.875
0.5 0 0.25
0.5 0 0.5
0.5 0 0.75
0.5 0 0.125
0.5 0 0.375
0.5 0 0.625
0.5 0 0.875
0.25 0 1
0.5 1 0.25
0.5 1 0.5
0.5 1 0.75
0.5 1 0.125
0.5 1 0.375
0.5 1 0.625
0.5 1 0.875
0.3872889057889954 0.2387920982717959 1
0.3486121811340027 0.4999999999999995 1
0.3872889057889953 0.7612079017282039 1
0.4348529673138253 0.1152464228848232 1
0.358333786800701 0.3679721081027862 1
0.3583337868007009 0.6320278918972132 1
0.4348529673138255 0.8847535771151773 1
0 1 0.25
0 1 0.5
0 1 0.75
0 1 0.125
0 1 0.375
0 1 0.625
0 1 0.875
0.25 1 1
0 0.75 1
0 0.5 1
0 0.25 1
0 0.875 1
0 0.625 1
0 0.375 1
0 0.125 1
0.75 0 0
1 0.1666666666666667 0
1 0.3333333333333333 0
1 0.5 0
1 0.6666666666666666 0
1 0.8333333333333333 0
1 0.08333333333333333 0
1 0.25 0
1 0.4166666666666666 0
1 0.5833333333333333 0
1 0.75 0
1 0.9166666666666666 0
0.75 1 0
0.4169858989575417 0.8443653691421729 0
0.365870834203712 0.6755437785521315 0
0.3486121811340027 0.5000000000000018 0
0.3658708342037114 0.3244562214478712 0
0.4169858989575412 0.1556346308578282 0
0.4546768294552345 0.9242181683928941 0
0.3872889057889957 0.7612079017282045 0
0.3529372206046755 0.5881950668888875 0
0.3529372206046753 0.4118049331111162 0
0.387288905788995 0.2387920982717974 0
0.4546768294552339 0.07578183160710705 0
0.5 0 0.1666666666666667
0.5 0 0.3333333333333333
0.5 0 0.5
0.5 0 0.6666666666666666
0.5 0 0.8333333333333334
0.5 0 0.08333333333333333
0.5 0 0.25
0.5 0 0.4166666666666666
0.5 0 0.5833333333333333
0.5 0 0.75
0.5 0 0.9166666666666667
1 0 0.1666666666666667
1 0 0.3333333333333333
1 0 0.5
1 0 0.6666666666666666
1 0 0.8333333333333334
1 0 0.08333333333333333
1 0 0.25
1 0 0.4166666666666666
1 0 0.5833333333333333
1 0 0.75
1 0 0.9166666666666667
0.75 0 1
1 1 0.1666666666666667
1 1 0.3333333333333333
1 1 0.5
1 1 0.6666666666666666
1 1 0.8333333333333334
1 1 0.08333333333333333
1 1 0.25
1 1 0.4166666666666666
1 1 0.5833333333333333
1 1 0.75
1 1 0.9166666666666667
1 0.1666666666666667 1
1 0.3333333333333333 1
1 0.5 1
1 0.6666666666666666 1
1 0.8333333333333333 1
1 0.08333333333333333 1
1 0.25 1
1 0.4166666666666666 1
1 0.5833333333333333 1
1 0.75 1
1 0.9166666666666666 1
0.5 1 0.1666666666666667
0.5 1 0.3333333333333333
0.5 1 0.5
0.5 1 0.6666666666666666
0.5 1 0.8333333333333334
0.5 1 0.08333333333333333
0.5 1 0.25
0.5 1 0.4166666666666666
0.5 1 0.5833333333333333
0.5 1 0.75
0.5 1 0.9166666666666667
0.75 1 1
0.4169858989575417 0.8443653691421729 1
0.365870834203712 0.6755437785521315 1
0.3486121811340027 0.5000000000000018 1
0.3658708342037114 0.3244562214478712 1
0.4169858989575412 0.1556346308578282 1
0.4546768294552345 0.9242181683928941 1
0.3872889057889957 0.7612079017282045 1
0.3529372206046755 0.5881950668888875 1
0.3529372206046753 0.4118049331111162 1
0.387288905788995 0.2387920982717974 1
0.4546768294552339 0.07578183160710705 1
0.1936444528944976 0.244396049135898 0
0.2174264836569125 0.1201232114424116 0
0.1743060905670013 0.4999999999999997 0
0.1791668934003504 0.3714860540513931 0
0.1936444528944976 0.7556039508641019 0
0.1791668934003504 0.6285139459486065 0
0.2174264836569126 0.8798767885575884 0
0.25 0 0.25
0.25 0 0.125
0.25 0 0.5
0.25 0 0.375
0.25 0 0.75
0.25 0 0.625
0.25 0 0.875
0.3872889057889954 0.2387920982717959 0.25
0.3872889057889954 0.2387920982717959 0.5
0.3872889057889954 0.2387920982717959 0.75
0.3486121811340027 0.4999999999999995 0.25
0.3486121811340027 0.4999999999999995 0.5
0.3486121811340027 0.4999999999999995 0.75
0.3872889057889953 0.7612079017282039 0.25
0.3872889057889953 0.7612079017282039 0.5
0.3872889057889953 0.7612079017282039 0.75
0.3872889057889954 0.2387920982717959 0.125
0.4348529673138253 0.1152464228848232 0.25
0.4348529673138253 0.1152464228848232 0.125
0.3872889057889954 0.2387920982717959 0.375
0.4348529673138253 0.1152464228848232 0.5
0.4348529673138253 0.1152464228848232 0.375
0.3872889057889954 0.2387920982717959 0.625
0.4348529673138253 0.1152464228848232 0.75
0.4348529673138253 0.1152464228848232 0.625
0.3872889057889954 0.2387920982717959 0.875
0.4348529673138253 0.1152464228848232 0.875
0.3486121811340027 0.4999999999999995 0.125
0.358333786800701 0.3679721081027862 0.25
0.358333786800701 0.3679721081027861 0.125
0.3486121811340027 0.4999999999999995 0.375
0.358333786800701 0.3679721081027862 0.5
0.358333786800701 0.3679721081027861 0.375
0.3486121811340027 0.4999999999999995 0.625
0.358333786800701 0.3679721081027862 0.75
0.358333786800701 0.3679721081027861 0.625
0.3486121811340027 0.4999999999999995 0.875
0.358333786800701 0.3679721081027861 0.875
0.3872889057889953 0.7612079017282039 0.125
0.3583337868007009 0.6320278918972132 0.25
0.3583337868007009 0.6320278918972132 0.125
0.3872889057889953 0.7612079017282039 0.375
0.3583337868007009 0.6320278918972132 0.5
0.3583337868007009 0.6320278918972132 0.375
0.3872889057889953 0.7612079017282039 0.625
0.3583337868007009 0.6320278918972132 0.75
0.3583337868007009 0.6320278918972132 0.625
0.3872889057889953 0.7612079017282039 0.875
0.3583337868007009 0.6320278918972132 0.875
0.4348529673138252 0.8847535771151765 0.25
0.4348529673138254 0.8847535771151769 0.125
0.4348529673138252 0.8847535771151765 0.5
0.4348529673138252 0.8847535771151765 0.375
0.4348529673138252 0.8847535771151765 0.75
0.4348529673138252 0.8847535771151765 0.625
0.4348529673138254 0.8847535771151769 0.875
0.25 1 0.25
0.25 1 0.125
0.25 1 0.5
0.25 1 0.375
0.25 1 0.75
0.25 1 0.625
0.25 1 0.875
0 0.75 0.25
0 0.75 0.5
0 0.75 0.75
0 0.5 0.25
0 0.5 0.5
0 0.5 0.75
0 0.25 0.25
0 0.25 0.5
0 0.25 0.75
0 0.75 0.125
0 0.875 0.25
0 0.875 0.125
0 0.75 0.375
0 0.875 0.5
0 0.875 0.375
0 0.75 0.625
0 0.875 0.75
0 0.875 0.625
0 0.75 0.875
0 0.875 0.875
0 0.5 0.125
0 0.625 0.25
0 0.625 0.125
0 0.5 0.375
0 0.625 0.5
0 0.625 0.375
0 0.5 0.625
0 0.625 0.75
0 0.625 0.625
0 0.5 0.875
0 0.625 0.875
0 0.25 0.125
0 0.375 0.25
0 0.375 0.125
0 0.25 0.375
0 0.375 0.5
0 0.375 0.375
0 0.25 0.625
0 0.375 0.75
0 0.375 0.625
0 0.25 0.875
0 0.375 0.875
0 0.125 0.25
0 0.125 0.125
0 0.125 0.5
0 0.125 0.375
0 0.125 0.75
0 0.125 0.625
0 0.125 0.875
0.1936444528944976 0.244396049135898 1
0.2174264836569125 0.1201232114424116 1
0.1743060905670013 0.4999999999999997 1
0.1791668934003504 0.3714860540513931 1
0.1936444528944976 0.7556039508641019 1
0.1791668934003504 0.6285139459486065 1
0.2174264836569126 0.8798767885575884 1
0.7084929494787706 0.1611506487622474 0
0.727338414727617 0.07955758247022021 0
0.6829354171018557 0.3288947773906022 0
0.6936444528944975 0.2443960491358987 0
0.6743060905670013 0.5000000000000009 0
0.6764686103023376 0.4142357998888914 0
0.682935417101856 0.6711052226093991 0
0.6764686103023377 0.5857642001111103 0
0.7084929494787708 0.8388493512377531 0
0.6936444528944978 0.7556039508641023 0
0.7273384147276172 0.9204424175297803 0
0.75 0 0.1666666666666667
0.75 0 0.08333333333333333
0.75 0 0.3333333333333333
0.75 0 0.25
0.75 0 0.5
0.75 0 0.4166666666666666
0.75 0 0.6666666666666666
0.75 0 0.5833333333333333
0.75 0 0.8333333333333334
0.75 0 0.75
0.75 0 0.9166666666666667
1 0.1666666666666667 0.1666666666666667
1 0.1666666666666667 0.3333333333333333
1 0.1666666666666667 0.5
1 0.1666666666666667 0.6666666666666666
1 0.1666666666666667 0.8333333333333334
1 0.3333333333333333 0.1666666666666667
1 0.3333333333333333 0.3333333333333333
1 0.3333333333333333 0.5
1 0.3333333333333333 0.6666666666666666
1 0.3333333333333333 0.8333333333333334
1 0.5 0.1666666666666667
1 0.5 0.3333333333333333
1 0.5 0.5
1 0.5 0.6666666666666666
1 0.5 0.8333333333333334
1 0.6666666666666666 0.1666666666666667
1 0.6666666666666666 0.3333333333333333
1 0.6666666666666666 0.5
1 0.6666666666666666 0.6666666666666666
1 0.6666666666666666 0.8333333333333334
1 0.8333333333333333 0.1666666666666667
1 0.8333333333333333 0.3333333333333333
1 0.8333333333333333 0.5
1 0.8333333333333333 0.6666666666666666
1 0.8333333333333333 0.8333333333333334
1 0.1666666666666667 0.08333333333333333
1 0.08333333333333333 0.1666666666666667
1 0.08333333333333333 0.08333333333333333
1 0.1666666666666667 0.25
1 0.08333333333333333 0.3333333333333333
1 0.08333333333333333 0.25
1 0.1666666666666667 0.4166666666666666
1 0.08333333333333333 0.5
1 0.08333333333333333 0.4166666666666666
1 0.1666666666666667 0.5833333333333333
1 0.08333333333333333 0.6666666666666666
1 0.08333333333333333 0.5833333333333333
1 0.1666666666666667 0.75
1 0.08333333333333333 0.8333333333333334
1 0.08333333333333333 0.75
1 0.1666666666666667 0.9166666666666667
1 0.08333333333333333 0.9166666666666667
1 0.3333333333333333 0.08333333333333333
1 0.25 0.1666666666666667
1 0.25 0.08333333333333333
1 0.3333333333333333 0.25
1 0.25 0.3333333333333333
1 0.25 0.25
1 0.3333333333333333 0.4166666666666666
1 0.25 0.5
1 0.25 0.4166666666666666
1 0.3333333333333333 0.5833333333333333
1 0.25 0.6666666666666666
1 0.25 0.5833333333333333
1 0.3333333333333333 0.75
1 0.25 0.8333333333333334
1 0.25 0.75
1 0.3333333333333333 0.9166666666666667
1 0.25 0.9166666666666667
1 0.5 0.08333333333333333
1 0.4166666666666666 0.1666666666666667
1 0.4166666666666666 0.08333333333333333
1 0.5 0.25
1 0.4166666666666666 0.3333333333333333
1 0.4166666666666666 0.25
1 0.5 0.4166666666666666
1 0.4166666666666666 0.5
1 0.4166666666666666 0.4166666666666666
1 0.5 0.5833333333333333
1 0.4166666666666666 0.6666666666666666
1 0.4166666666666666 0.5833333333333333
1 0.5 0.75
1 0.4166666666666666 0.8333333333333334
[...]
CELL_DATA 196
SCALARS CellEntityIds int 1
LOOKUP_TABLE default
2
2
2
2
2
2
2
2
1
1
1
1
1
1
1
1
1
1
1
1
1
1
1
1
2
2
2
2
2
2
2
2
2
2
2
2
2
2
2
2
2
2
2
2
2
2
2
2
4
4
4
4
4
4
4
4
4
4
4
4
4
4
4
4
4
4
4
4
4
4
4
4
4
4
4
4
4
4
4
4
4
4
4
4
4
4
4
4
4
4
4
4
4
4
4
4
4
4
4
4
4
4
3
3
3
3
3
3
3
3
3
3
3
3
3
3
3
3
3
3
3
3
3
3
3
3
3
3
3
3
3
3
3
3
3
3
3
3
4
4
4
4
4
4
1
1
1
1
1
1
1
1
1
1
1
1
1
1
1
1
2
2
2
2
2
2
2
2
2
2
2
2
2
2
2
2
2
2
2
2
2
2
2
2
2
2
2
2
2
2
2
2
2
2
2
2
