<VTKFile type="UnstructuredGrid" version="1.0">
<UnstructuredGrid>
<FieldData>
<DataArray type="Float64" Name="TIME" NumberOfTuples="1" format="ascii" RangeMin="9.5" RangeMax="9.5">
9.5
</DataArray>
</FieldData>
<Piece NumberOfPoints="15756" NumberOfCells="12500">
<Points>
<DataArray type="Float64" NumberOfComponents="3" format="ascii">
0 0 400 100 0 400 100 25 400 0
25 400 0 0 403.75 100 0 403.75 100 25
403.75 0 25 403.75 1 0 400 2 0 400
3 0 400 4 0 400 5 0 400 6
0 400 7 0 400 8 0 400 9 0
400 10 0 400 11 0 400 12 0 400
13 0 400 14 0 400 15 0 400 16
0 400 17 0 400 18 0 400 19 0
400 20 0 400 21 0 400 22 0 400
23 0 400 24 0 400 25 0 400 26
0 400 27 0 400 28 0 400 29 0
400 30 0 400 31 0 400 32 0 400
33 0 400 34 0 400 35 0 400 36
0 400 37 0 400 38 0 400 39 0
400 40 0 400 41 0 400 42 0 400
43 0 400 44 0 400 45 0 400 46
0 400 47 0 400 48 0 400 49 0
400 50 0 400 51 0 400 52 0 400
53 0 400 54 0 400 55 0 400 56
0 400 57 0 400 58 0 400 59 0
400 60 0 400 61 0 400 62 0 400
63 0 400 64 0 400 65 0 400 66
0 400 67 0 400 68 0 400 69 0
400 70 0 400 71 0 400 72 0 400
73 0 400 74 0 400 75 0 400 76
0 400 77 0 400 78 0 400 79 0
400 80 0 400 81 0 400 82 0 400
83 0 400 84 0 400 85 0 400 86
0 400 87 0 400 88 0 400 89 0
400 90 0 400 91 0 400 92 0 400
93 0 400 94 0 400 95 0 400 96
0 400 97 0 400 98 0 400 99 0
400 100 1 400 100 2 400 100 3 400
100 4 400 100 5 400 100 6 400 100
7 400 100 8 400 100 9 400 100 10
400 100 11 400 100 12 400 100 13 400
100 14 400 100 15 400 100 16 400 100
17 400 100 18 400 100 19 400 100 20
400 100 21 400 100 22 400 100 23 400
100 24 400 99 25 400 98 25 400 97
25 400 96 25 400 95 25 400 94 25
400 93 25 400 92 25 400 91 25 400
90 25 400 89 25 400 88 25 400 87
25 400 86 25 400 85 25 400 84 25
400 83 25 400 82 25 400 81 25 400
80 25 400 79 25 400 78 25 400 77
25 400 76 25 400 75 25 400 74 25
400 73 25 400 72 25 400 71 25 400
70 25 400 69 25 400 68 25 400 67
25 400 66 25 400 65 25 400 64 25
400 63 25 400 62 25 400 61 25 400
60 25 400 59 25 400 58 25 400 57
25 400 56 25 400 55 25 400 54 25
400 53 25 400 52 25 400 51 25 400
50 25 400 49 25 400 48 25 400 47
25 400 46 25 400 45 25 400 44 25
400 43 25 400 42 25 400 41 25 400
40 25 400 39 25 400 38 25 400 37
25 400 36 25 400 35 25 400 34 25
400 33 25 400 32 25 400 31 25 400
30 25 400 29 25 400 28 25 400 27
25 400 26 25 400 25 25 400 24 25
400 23 25 400 22 25 400 21 25 400
20 25 400 19 25 400 18 25 400 17
25 400 16 25 400 15 25 400 14 25
400 13 25 400 12 25 400 11 25 400
10 25 400 9 25 400 8 25 400 7
25 400 6 25 400 5 25 400 4 25
400 3 25 400 2 25 400 1 25 400
0 24 400 0 23 400 0 22 400 0
21 400 0 20 400 0 19 400 0 18
400 0 17 400 0 16 400 0 15 400
0 14 400 0 13 400 0 12 400 0
11 400 0 10 400 0 9 400 0 8
400 0 7 400 0 6 400 0 5 400
0 4 400 0 3 400 0 2 400 0
1 400 1 0 403.75 2 0 403.75 3 0
403.75 4 0 403.75 5 0 403.75 6 0 403.75
7 0 403.75 8 0 403.75 9 0 403.75 10
0 403.75 11 0 403.75 12 0 403.75 13 0
403.75 14 0 403.75 15 0 403.75 16 0 403.75
17 0 403.75 18 0 403.75 19 0 403.75 20
0 403.75 21 0 403.75 22 0 403.75 23 0
403.75 24 0 403.75 25 0 403.75 26 0 403.75
27 0 403.75 28 0 403.75 29 0 403.75 30
0 403.75 31 0 403.75 32 0 403.75 33 0
403.75 34 0 403.75 35 0 403.75 36 0 403.75
37 0 403.75 38 0 403.75 39 0 403.75 40
0 403.75 41 0 403.75 42 0 403.75 43 0
403.75 44 0 403.75 45 0 403.75 46 0 403.75
47 0 403.75 48 0 403.75 49 0 403.75 50
0 403.75 51 0 403.75 52 0 403.75 53 0
403.75 54 0 403.75 55 0 403.75 56 0 403.75
57 0 403.75 58 0 403.75 59 0 403.75 60
0 403.75 61 0 403.75 62 0 403.75 63 0
403.75 64 0 403.75 65 0 403.75 66 0 403.75
67 0 403.75 68 0 403.75 69 0 403.75 70
0 403.75 71 0 403.75 72 0 403.75 73 0
403.75 74 0 403.75 75 0 403.75 76 0 403.75
77 0 403.75 78 0 403.75 79 0 403.75 80
0 403.75 81 0 403.75 82 0 403.75 83 0
403.75 84 0 403.75 85 0 403.75 86 0 403.75
87 0 403.75 88 0 403.75 89 0 403.75 90
0 403.75 91 0 403.75 92 0 403.75 93 0
403.75 94 0 403.75 95 0 403.75 96 0 403.75
97 0 403.75 98 0 403.75 99 0 403.75 100
1 403.75 100 2 403.75 100 3 403.75 100 4
403.75 100 5 403.75 100 6 403.75 100 7 403.75
100 8 403.75 100 9 403.75 100 10 403.75 100
11 403.75 100 12 403.75 100 13 403.75 100 14
403.75 100 15 403.75 100 16 403.75 100 17 403.75
100 18 403.75 100 19 403.75 100 20 403.75 100
21 403.75 100 22 403.75 100 23 403.75 100 24
403.75 99 25 403.75 98 25 403.75 97 25 403.75
96 25 403.75 95 25 403.75 94 25 403.75 93
25 403.75 92 25 403.75 91 25 403.75 90 25
403.75 89 25 403.75 88 25 403.75 87 25 403.75
86 25 403.75 85 25 403.75 84 25 403.75 83
25 403.75 82 25 403.75 81 25 403.75 80 25
403.75 79 25 403.75 78 25 403.75 77 25 403.75
76 25 403.75 75 25 403.75 74 25 403.75 73
25 403.75 72 25 403.75 71 25 403.75 70 25
403.75 69 25 403.75 68 25 403.75 67 25 403.75
66 25 403.75 65 25 403.75 64 25 403.75 63
25 403.75 62 25 403.75 61 25 403.75 60 25
403.75 59 25 403.75 58 25 403.75 57 25 403.75
56 25 403.75 55 25 403.75 54 25 403.75 53
25 403.75 52 25 403.75 51 25 403.75 50 25
403.75 49 25 403.75 48 25 403.75 47 25 403.75
46 25 403.75 45 25 403.75 44 25 403.75 43
25 403.75 42 25 403.75 41 25 403.75 40 25
403.75 39 25 403.75 38 25 403.75 37 25 403.75
36 25 403.75 35 25 403.75 34 25 403.75 33
25 403.75 32 25 403.75 31 25 403.75 30 25
403.75 29 25 403.75 28 25 403.75 27 25 403.75
26 25 403.75 25 25 403.75 24 25 403.75 23
25 403.75 22 25 403.75 21 25 403.75 20 25
403.75 19 25 403.75 18 25 403.75 17 25 403.75
16 25 403.75 15 25 403.75 14 25 403.75 13
25 403.75 12 25 403.75 11 25 403.75 10 25
403.75 9 25 403.75 8 25 403.75 7 25 403.75
6 25 403.75 5 25 403.75 4 25 403.75 3
25 403.75 2 25 403.75 1 25 403.75 0 24
403.75 0 23 403.75 0 22 403.75 0 21 403.75
0 20 403.75 0 19 403.75 0 18 403.75 0
17 403.75 0 16 403.75 0 15 403.75 0 14
403.75 0 13 403.75 0 12 403.75 0 11 403.75
0 10 403.75 0 9 403.75 0 8 403.75 0
7 403.75 0 6 403.75 0 5 403.75 0 4
403.75 0 3 403.75 0 2 403.75 0 1 403.75
0 0 400.75 0 0 401.5 0 0 402.25 0
0 403 100 0 400.75 100 0 401.5 100 0
402.25 100 0 403 100 25 400.75 100 25 401.5
100 25 402.25 100 25 403 0 25 400.75 0
25 401.5 0 25 402.25 0 25 403 1 1
400 1 2 400 1 3 400 1 4 400
1 5 400 1 6 400 1 7 400 1
8 400 1 9 400 1 10 400 1 11
400 1 12 400 1 13 400 1 14 400
1 15 400 1 16 400 1 17 400 1
18 400 1 19 400 1 20 400 1 21
400 1 22 400 1 23 400 1 24 400
2 1 400 2 2 400 2 3 400 2
4 400 2 5 400 2 6 400 2 7
400 2 8 400 2 9 400 2 10 400
2 11 400 2 12 400 2 13 400 2
14 400 2 15 400 2 16 400 2 17
400 2 18 400 2 19 400 2 20 400
2 21 400 2 22 400 2 23 400 2
24 400 3 1 400 3 2 400 3 3
400 3 4 400 3 5 400 3 6 400
3 7 400 3 8 400 3 9 400 3
10 400 3 11 400 3 12 400 3 13
400 3 14 400 3 15 400 3 16 400
3 17 400 3 18 400 3 19 400 3
20 400 3 21 400 3 22 400 3 23
400 3 24 400 4 1 400 4 2 400
4 3 400 4 4 400 4 5 400 4
6 400 4 7 400 4 8 400 4 9
400 4 10 400 4 11 400 4 12 400
4 13 400 4 14 400 4 15 400 4
16 400 4 17 400 4 18 400 4 19
400 4 20 400 4 21 400 4 22 400
4 23 400 4 24 400 5 1 400 5
2 400 5 3 400 5 4 400 5 5
400 5 6 400 5 7 400 5 8 400
5 9 400 5 10 400 5 11 400 5
12 400 5 13 400 5 14 400 5 15
400 5 16 400 5 17 400 5 18 400
5 19 400 5 20 400 5 21 400 5
22 400 5 23 400 5 24 400 6 1
400 6 2 400 6 3 400 6 4 400
6 5 400 6 6 400 6 7 400 6
8 400 6 9 400 6 10 400 6 11
400 6 12 400 6 13 400 6 14 400
6 15 400 6 16 400 6 17 400 6
18 400 6 19 400 6 20 400 6 21
400 6 22 400 6 23 400 6 24 400
7 1 400 7 2 400 7 3 400 7
4 400 7 5 400 7 6 400 7 7
400 7 8 400 7 9 400 7 10 400
7 11 400 7 12 400 7 13 400 7
14 400 7 15 400 7 16 400 7 17
400 7 18 400 7 19 400 7 20 400
7 21 400 7 22 400 7 23 400 7
24 400 8 1 400 8 2 400 8 3
400 8 4 400 8 5 400 8 6 400
8 7 400 8 8 400 8 9 400 8
10 400 8 11 400 8 12 400 8 13
400 8 14 400 8 15 400 8 16 400
8 17 400 8 18 400 8 19 400 8
20 400 8 21 400 8 22 400 8 23
400 8 24 400 9 1 400 9 2 400
9 3 400 9 4 400 9 5 400 9
6 400 9 7 400 9 8 400 9 9
400 9 10 400 9 11 400 9 12 400
9 13 400 9 14 400 9 15 400 9
16 400 9 17 400 9 18 400 9 19
400 9 20 400 9 21 400 9 22 400
9 23 400 9 24 400 10 1 400 10
2 400 10 3 400 10 4 400 10 5
400 10 6 400 10 7 400 10 8 400
10 9 400 10 10 400 10 11 400 10
12 400 10 13 400 10 14 400 10 15
400 10 16 400 10 17 400 10 18 400
10 19 400 10 20 400 10 21 400 10
22 400 10 23 400 10 24 400 11 1
400 11 2 400 11 3 400 11 4 400
11 5 400 11 6 400 11 7 400 11
8 400 11 9 400 11 10 400 11 11
400 11 12 400 11 13 400 11 14 400
11 15 400 11 16 400 11 17 400 11
18 400 11 19 400 11 20 400 11 21
400 11 22 400 11 23 400 11 24 400
12 1 400 12 2 400 12 3 400 12
4 400 12 5 400 12 6 400 12 7
400 12 8 400 12 9 400 12 10 400
12 11 400 12 12 400 12 13 400 12
14 400 12 15 400 12 16 400 12 17
400 12 18 400 12 19 400 12 20 400
12 21 400 12 22 400 12 23 400 12
24 400 13 1 400 13 2 400 13 3
400 13 4 400 13 5 400 13 6 400
13 7 400 13 8 400 13 9 400 13
10 400 13 11 400 13 12 400 13 13
400 13 14 400 13 15 400 13 16 400
13 17 400 13 18 400 13 19 400 13
20 400 13 21 400 13 22 400 13 23
400 13 24 400 14 1 400 14 2 400
14 3 400 14 4 400 14 5 400 14
6 400 14 7 400 14 8 400 14 9
400 14 10 400 14 11 400 14 12 400
14 13 400 14 14 400 14 15 400 14
16 400 14 17 400 14 18 400 14 19
400 14 20 400 14 21 400 14 22 400
14 23 400 14 24 400 15 1 400 15
2 400 15 3 400 15 4 400 15 5
400 15 6 400 15 7 400 15 8 400
15 9 400 15 10 400 15 11 400 15
12 400 15 13 400 15 14 400 15 15
400 15 16 400 15 17 400 15 18 400
15 19 400 15 20 400 15 21 400 15
22 400 15 23 400 15 24 400 16 1
400 16 2 400 16 3 400 16 4 400
16 5 400 16 6 400 16 7 400 16
8 400 16 9 400 16 10 400 16 11
400 16 12 400 16 13 400 16 14 400
16 15 400 16 16 400 16 17 400 16
18 400 16 19 400 16 20 400 16 21
400 16 22 400 16 23 400 16 24 400
17 1 400 17 2 400 17 3 400 17
4 400 17 5 400 17 6 400 17 7
400 17 8 400 17 9 400 17 10 400
17 11 400 17 12 400 17 13 400 17
14 400 17 15 400 17 16 400 17 17
400 17 18 400 17 19 400 17 20 400
17 21 400 17 22 400 17 23 400 17
24 400 18 1 400 18 2 400 18 3
400 18 4 400 18 5 400 18 6 400
18 7 400 18 8 400 18 9 400 18
10 400 18 11 400 18 12 400 18 13
400 18 14 400 18 15 400 18 16 400
18 17 400 18 18 400 18 19 400 18
20 400 18 21 400 18 22 400 18 23
400 18 24 400 19 1 400 19 2 400
19 3 400 19 4 400 19 5 400 19
[...]
<PointData>
<DataArray type="Float64" Name="press" NumberOfComponents="1" format="ascii">
100 91.6967 60 104.935 100 54.9092 60 68.1474 110.082 109.573
109.145 108.545 107.999 107.511 107.079 106.694 106.345 106.026 105.73 105.453
105.193 104.945 104.708 104.48 104.26 104.047 103.839 103.636 103.437 103.242
103.05 102.86 102.673 102.489 102.305 102.124 101.944 101.765 101.587 101.41
101.234 101.059 100.884 100.71 100.537 100.364 100.191 100.019 99.8469 99.6753
99.5039 99.3329 99.162 98.9914 98.821 98.6508 98.4807 98.3109 98.1412 97.9717
97.8024 97.6333 97.4644 97.2957 97.1272 96.9589 96.791 96.6233 96.4559 96.2888
96.1222 95.9559 95.7902 95.625 95.4604 95.2964 95.1332 94.9709 94.8095 94.6492
94.4901 94.3323 94.176 94.0215 93.8689 93.7184 93.5703 93.4248 93.2823 93.1431
93.0076 92.8761 92.749 92.6268 92.51 92.399 92.2943 92.1965 92.106 92.0234
91.9491 91.8836 91.8274 91.7808 91.7443 91.7179 91.7021 91.6914 91.6754 91.6486
91.6107 91.5615 91.5006 91.4273 91.341 91.2408 91.1257 90.9944 90.8451 90.6758
90.4836 90.2652 90.0156 89.728 89.3922 88.9915 88.4961 87.8424 86.9046 85.1722
82.4542 82.4577 85.1864 86.9365 87.8992 88.5847 89.1191 89.566 89.955 90.3029
90.6199 90.9129 91.1868 91.445 91.6903 91.925 92.1507 92.3687 92.5803 92.7864
92.9877 93.185 93.3787 93.5694 93.7574 93.9431 94.1268 94.3087 94.4892 94.6683
94.8462 95.0231 95.199 95.3742 95.5487 95.7226 95.896 96.0689 96.2413 96.4134
96.5852 96.7567 96.9279 97.0989 97.2696 97.4402 97.6106 97.7809 97.951 98.1209
98.2907 98.4604 98.63 98.7994 98.9686 99.1377 99.3066 99.4754 99.6439 99.8123
99.9803 100.148 100.316 100.483 100.65 100.816 100.982 101.147 101.312 101.476
101.639 101.801 101.962 102.122 102.281 102.438 102.593 102.747 102.898 103.047
103.194 103.337 103.477 103.614 103.746 103.874 103.997 104.115 104.227 104.332
104.431 104.522 104.606 104.68 104.746 104.803 104.85 104.887 104.913 104.93
104.94 104.956 104.984 105.022 105.072 105.133 105.208 105.295 105.396 105.513
105.646 105.797 105.968 106.162 106.383 106.634 106.922 107.254 107.639 108.088
108.602 109.177 109.588 110.085 77.4704 74.723 72.9603 71.9887 71.2961 70.7559
70.3042 69.9109 69.5592 69.2388 68.9427 68.6661 68.4052 68.1575 67.9206 67.6928
67.4727 67.2593 67.0514 66.8485 66.6496 66.4544 66.2623 66.0729 65.886 65.701
65.5179 65.3364 65.1563 64.9774 64.7996 64.6227 64.4467 64.2714 64.0968 63.9227
63.7492 63.5762 63.4036 63.2313 63.0594 62.8878 62.7164 62.5454 62.3745 62.2039
62.0335 61.8633 61.6932 61.5234 61.3537 61.1842 61.0149 60.8458 60.6769 60.5082
60.3397 60.1714 60.0035 59.8358 59.6684 59.5013 59.3347 59.1684 59.0027 58.8375
58.6729 58.5089 58.3457 58.1834 58.022 57.8617 57.7026 57.5448 57.3885 57.234
57.0814 56.9309 56.7828 56.6373 56.4948 56.3556 56.2201 56.0886 55.9615 55.8393
55.7225 55.6115 55.5068 55.409 55.3185 55.2359 55.1616 55.0961 55.0399 54.9933
54.9568 54.9304 54.9146 54.9039 54.8879 54.8611 54.8232 54.774 54.7131 54.6398
54.5535 54.4533 54.3382 54.2069 54.0576 53.8884 53.6964 53.4785 53.23 52.9454
52.6173 52.2366 51.7936 51.2858 50.7202 50.3219 49.843 49.8466 50.3361 50.7521
51.3426 51.8823 52.3643 52.791 53.1724 53.5173 53.8332 54.1257 54.3994 54.6575
54.9029 55.1375 55.3632 55.5812 55.7928 55.9989 56.2002 56.3975 56.5912 56.7819
56.9699 57.1556 57.3393 57.5212 57.7017 57.8808 58.0587 58.2356 58.4115 58.5867
58.7612 58.9351 59.1085 59.2814 59.4538 59.6259 59.7977 59.9692 60.1404 60.3114
60.4821 60.6527 60.8231 60.9934 61.1635 61.3334 61.5032 61.6729 61.8425 62.0119
62.1811 62.3502 62.5191 62.6879 62.8564 63.0248 63.1928 63.3607 63.5282 63.6953
63.8621 64.0284 64.1943 64.3595 64.5242 64.6881 64.8512 65.0134 65.1745 65.3344
65.4931 65.6502 65.8057 65.9592 66.1107 66.2597 66.4061 66.5496 66.6898 66.8263
66.9587 67.0867 67.2098 67.3275 67.4394 67.5449 67.6435 67.7347 67.818 67.8929
67.9589 68.0156 68.0625 68.0994 68.126 68.142 68.1528 68.169 68.1961 68.2344
68.2842 68.3459 68.4201 68.5074 68.6087 68.7252 68.8581 69.0091 69.1805 69.3749
69.5959 69.8484 70.1394 70.4791 70.8844 71.3853 72.0458 72.9924 74.7372 77.474
100 100 100 100 84.3392 76.9817 69.6242 62.2667 60 60
60 60 97.5774 90.2199 82.8624 75.5049 109.253 109.578 109.067 108.536
108.038 107.602 107.226 106.9 106.616 106.367 106.149 105.957 105.787 105.637
105.505 105.389 105.288 105.201 105.127 105.066 105.016 104.978 104.951 104.935
109.567 109.211 108.815 108.343 107.897 107.496 107.143 106.834 106.562 106.322
106.11 105.923 105.757 105.61 105.48 105.366 105.267 105.182 105.109 105.048
104.999 104.961 104.935 104.919 109.039 108.797 108.447 108.065 107.685 107.333
107.015 106.73 106.476 106.249 106.048 105.868 105.708 105.566 105.44 105.33
105.233 105.149 105.078 105.019 104.971 104.934 104.908 104.892 108.482 108.3
108.04 107.738 107.428 107.128 106.849 106.593 106.361 106.152 105.963 105.793
105.642 105.506 105.385 105.279 105.186 105.105 105.036 104.978 104.932 104.896
104.87 104.855 107.952 107.822 107.628 107.395 107.146 106.897 106.657 106.432
106.224 106.033 105.859 105.701 105.559 105.431 105.316 105.215 105.126 105.048
104.982 104.927 104.882 104.847 104.823 104.808 107.478 107.382 107.237 107.057
106.858 106.652 106.449 106.254 106.069 105.898 105.739 105.594 105.462 105.342
105.235 105.139 105.054 104.981 104.918 104.865 104.822 104.789 104.765 104.751
107.054 106.983 106.872 106.731 106.572 106.403 106.231 106.063 105.902 105.749
105.606 105.474 105.352 105.241 105.141 105.052 104.972 104.903 104.843 104.793
104.752 104.721 104.698 104.685 106.675 106.62 106.533 106.422 106.293 106.154
106.01 105.866 105.725 105.59 105.462 105.342 105.231 105.13 105.037 104.954
104.88 104.815 104.759 104.712 104.673 104.644 104.622 104.61 106.33 106.287
106.219 106.129 106.024 105.909 105.788 105.664 105.542 105.423 105.31 105.202
105.102 105.009 104.924 104.847 104.779 104.718 104.666 104.622 104.586 104.558
104.538 104.526 106.014 105.979 105.924 105.852 105.766 105.67 105.567 105.462
105.356 105.252 105.151 105.055 104.964 104.88 104.803 104.733 104.669 104.613
104.565 104.524 104.491 104.464 104.446 104.435 105.72 105.693 105.648 105.588
105.517 105.436 105.349 105.259 105.167 105.076 104.987 104.902 104.821 104.745
104.675 104.61 104.553 104.501 104.457 104.419 104.388 104.364 104.346 104.336
105.446 105.423 105.386 105.337 105.277 105.209 105.135 105.058 104.978 104.899
104.82 104.745 104.672 104.604 104.54 104.482 104.429 104.382 104.341 104.307
104.278 104.256 104.24 104.23 105.186 105.167 105.137 105.095 105.045 104.988
104.925 104.858 104.789 104.72 104.651 104.584 104.519 104.458 104.401 104.348
104.3 104.258 104.22 104.188 104.162 104.142 104.127 104.118 104.94 104.924
104.898 104.863 104.821 104.772 104.718 104.661 104.601 104.54 104.48 104.42
104.363 104.308 104.257 104.21 104.166 104.127 104.093 104.064 104.04 104.022
104.008 104 104.704 104.69 104.669 104.639 104.603 104.561 104.515 104.465
104.413 104.36 104.307 104.255 104.204 104.155 104.109 104.067 104.028 103.993
103.962 103.935 103.913 103.896 103.884 103.877 104.476 104.465 104.447 104.422
104.391 104.355 104.315 104.272 104.227 104.181 104.134 104.088 104.043 103.999
103.958 103.92 103.885 103.853 103.826 103.802 103.782 103.766 103.755 103.748
104.257 104.247 104.232 104.21 104.184 104.153 104.118 104.081 104.042 104.001
103.96 103.92 103.88 103.841 103.805 103.771 103.739 103.711 103.686 103.664
103.646 103.632 103.622 103.616 104.044 104.036 104.022 104.004 103.981 103.955
103.925 103.892 103.858 103.823 103.787 103.751 103.715 103.681 103.649 103.618
103.59 103.565 103.542 103.523 103.506 103.494 103.485 103.479 103.837 103.829
103.818 103.802 103.782 103.759 103.734 103.705 103.675 103.644 103.613 103.581
103.55 103.52 103.491 103.464 103.438 103.416 103.395 103.378 103.363 103.352
103.344 103.339 103.634 103.628 103.618 103.604 103.587 103.567 103.545 103.52
103.494 103.467 103.439 103.411 103.384 103.357 103.331 103.307 103.284 103.264
103.246 103.23 103.217 103.207 103.2 103.195 103.435 103.43 103.421 103.41
103.395 103.377 103.358 103.336 103.314 103.29 103.265 103.241 103.216 103.193
103.17 103.148 103.128 103.11 103.094 103.08 103.068 103.059 103.053 103.049
103.24 103.236 103.228 103.218 103.205 103.19 103.173 103.154 103.134 103.113
103.092 103.07 103.049 103.028 103.008 102.988 102.971 102.954 102.94 102.928
102.917 102.909 102.903 102.899 103.048 103.045 103.038 103.029 103.018 103.005
102.99 102.973 102.956 102.938 102.919 102.9 102.881 102.862 102.844 102.827
102.811 102.797 102.784 102.773 102.764 102.756 102.751 102.748 102.859 102.856
102.85 102.842 102.833 102.821 102.808 102.794 102.778 102.762 102.746 102.729
102.712 102.696 102.68 102.665 102.651 102.638 102.627 102.617 102.608 102.602
102.597 102.594 102.672 102.669 102.664 102.658 102.649 102.639 102.628 102.615
102.602 102.587 102.573 102.558 102.543 102.529 102.515 102.501 102.489 102.478
102.467 102.459 102.451 102.445 102.441 102.439 102.488 102.485 102.481 102.475
102.467 102.458 102.448 102.437 102.426 102.413 102.4 102.387 102.374 102.361
102.349 102.337 102.326 102.316 102.307 102.299 102.293 102.287 102.284 102.281
102.305 102.302 102.299 102.293 102.287 102.279 102.27 102.261 102.25 102.239
102.228 102.216 102.205 102.194 102.183 102.172 102.162 102.153 102.145 102.138
102.133 102.128 102.125 102.123 102.123 102.121 102.118 102.113 102.108 102.101
102.093 102.085 102.075 102.066 102.056 102.046 102.036 102.026 102.016 102.007
101.998 101.99 101.983 101.977 101.971 101.967 101.964 101.963 101.943 101.941
101.939 101.935 101.929 101.924 101.917 101.909 101.901 101.893 101.884 101.875
101.866 101.857 101.849 101.84 101.833 101.826 101.819 101.814 101.809 101.806
101.803 101.801 101.764 101.763 101.76 101.757 101.752 101.747 101.741 101.735
101.727 101.72 101.712 101.704 101.696 101.689 101.681 101.674 101.667 101.661
101.655 101.65 101.646 101.643 101.641 101.639 101.587 101.585 101.583 101.58
101.576 101.571 101.566 101.56 101.554 101.548 101.541 101.534 101.527 101.52
101.513 101.507 101.501 101.495 101.49 101.486 101.482 101.479 101.477 101.476
101.41 101.409 101.407 101.404 101.4 101.396 101.392 101.387 101.381 101.375
101.369 101.363 101.357 101.351 101.345 101.339 101.334 101.329 101.325 101.321
101.318 101.315 101.313 101.312 101.234 101.233 101.231 101.229 101.226 101.222
101.218 101.213 101.209 101.203 101.198 101.193 101.187 101.182 101.177 101.172
101.167 101.162 101.159 101.155 101.152 101.15 101.148 101.147 101.059 101.058
101.056 101.054 101.051 101.048 101.045 101.041 101.036 101.032 101.027 101.022
101.017 101.013 101.008 101.003 100.999 100.995 100.992 100.989 100.986 100.984
100.983 100.982 100.884 100.883 100.882 100.88 100.878 100.875 100.872 100.868
100.864 100.86 100.856 100.852 100.848 100.843 100.839 100.835 100.832 100.828
100.825 100.822 100.82 100.818 100.817 100.816 100.71 100.709 100.708 100.706
100.704 100.702 100.699 100.696 100.693 100.689 100.685 100.682 100.678 100.674
100.67 100.667 100.663 100.66 100.658 100.655 100.653 100.652 100.651 100.65
100.537 100.536 100.535 100.533 100.532 100.529 100.527 100.524 100.521 100.518
100.515 100.511 100.508 100.504 100.501 100.498 100.495 100.492 100.49 100.488
100.486 100.485 100.484 100.483 100.363 100.363 100.362 100.361 100.359 100.357
100.355 100.352 100.35 100.347 100.344 100.341 100.338 100.335 100.332 100.329
100.327 100.324 100.322 100.32 100.319 100.317 100.316 100.316 100.191 100.19
100.19 100.188 100.187 100.185 100.183 100.181 100.179 100.176 100.173 100.171
100.168 100.165 100.163 100.16 100.158 100.156 100.154 100.152 100.151 100.15
100.149 100.148 100.019 100.018 100.017 100.016 100.015 100.014 100.012 100.01
100.008 100.005 100.003 100.001 99.9983 99.9959 99.9935 99.9913 99.9892 99.9872
99.9855 99.984 99.9827 99.9817 99.9809 99.9805 99.8468 99.8463 99.8457 99.8447
99.8436 99.8422 99.8406 99.8388 99.8369 99.8348 99.8327 99.8306 99.8284 99.8262
99.8241 99.8221 99.8202 99.8185 99.8169 99.8155 99.8144 99.8135 99.8128 99.8124
99.6752 99.6748 99.6742 99.6733 99.6723 99.671 99.6696 99.668 99.6662 99.6644
99.6625 99.6605 99.6585 99.6566 99.6547 99.6529 99.6512 99.6496 99.6481 99.6469
99.6458 99.645 99.6444 99.644 99.5038 99.5035 99.5029 99.5022 99.5012 99.5
99.4987 99.4973 99.4957 99.494 99.4923 99.4905 99.4887 99.4869 99.4852 99.4835
99.482 99.4805 99.4792 99.4781 99.4771 99.4764 99.4758 99.4755 99.3328 99.3325
99.3319 99.3312 99.3303 99.3293 99.3281 99.3267 99.3253 99.3238 99.3222 99.3205
99.3189 99.3172 99.3157 99.3141 99.3127 99.3114 99.3102 99.3091 99.3082 99.3075
99.307 99.3067 99.1619 99.1616 99.1612 99.1605 99.1597 99.1587 99.1576 99.1564
99.155 99.1536 99.1521 99.1506 99.1491 99.1476 99.1461 99.1447 99.1433 99.1421
99.141 99.14 99.1392 99.1385 99.1381 99.1378 98.9913 98.991 98.9906 98.99
98.9892 98.9883 98.9873 98.9861 98.9848 98.9835 98.9821 98.9807 98.9793 98.9778
98.9765 98.9751 98.9739 98.9727 98.9717 98.9708 98.97 98.9694 98.969 98.9687
98.8209 98.8206 98.8202 98.8196 98.8189 98.818 98.817 98.8159 98.8148 98.8135
98.8122 98.8108 98.8095 98.8081 98.8068 98.8056 98.8044 98.8033 98.8023 98.8014
98.8007 98.8001 98.7997 98.7994 98.6507 98.6504 98.65 98.6495 98.6488 98.6479
98.647 98.6459 98.6448 98.6436 98.6423 98.641 98.6397 98.6384 98.6371 98.6359
98.6348 98.6337 98.6328 98.6319 98.6312 98.6307 98.6303 98.63 98.4806 98.4804
98.48 98.4795 98.4788 98.478 98.477 98.476 98.4749 98.4737 98.4725 98.4712
98.4699 98.4687 98.4674 98.4662 98.4651 98.4641 98.4632 98.4624 98.4617 98.4611
98.4607 98.4605 98.3108 98.3106 98.3102 98.3096 98.3089 98.3081 98.3072 98.3062
98.3051 98.3039 98.3027 98.3014 98.3002 98.2989 98.2977 98.2965 98.2954 98.2944
98.2935 98.2927 98.292 98.2915 98.2911 98.2908 98.1411 98.1409 98.1405 98.1399
98.1393 98.1385 98.1375 98.1365 98.1354 98.1342 98.133 98.1317 98.1304 98.1292
98.1279 98.1268 98.1256 98.1246 98.1237 98.1229 98.1222 98.1216 98.1212 98.121
97.9716 97.9714 97.971 97.9704 97.9697 97.9689 97.968 97.9669 97.9658 97.9646
97.9633 97.962 97.9607 97.9594 97.9581 97.9569 97.9558 97.9547 97.9538 97.953
97.9523 97.9517 97.9513 97.9511 97.8023 97.8021 97.8017 97.8011 97.8004 97.7995
97.7985 97.7974 97.7962 97.795 97.7937 97.7923 97.791 97.7896 97.7883 97.7871
97.7859 97.7848 97.7838 97.7829 97.7822 97.7816 97.7812 97.781 97.6332 97.6329
97.6325 97.6319 97.6311 97.6302 97.6292 97.6281 97.6268 97.6255 97.6241 97.6227
97.6213 97.6199 97.6185 97.6172 97.6159 97.6148 97.6137 97.6128 97.612 97.6114
97.611 97.6107 97.4643 97.464 97.4635 97.4629 97.4621 97.4611 97.46 97.4588
97.4575 97.4561 97.4546 97.4531 97.4516 97.4501 97.4486 97.4472 97.4458 97.4446
97.4435 97.4425 97.4417 97.4411 97.4406 97.4403 97.2956 97.2953 97.2948 97.2941
97.2932 97.2922 97.291 97.2897 97.2882 97.2867 97.2851 97.2835 97.2819 97.2803
97.2787 97.2771 97.2757 97.2744 97.2732 97.2721 97.2713 97.2706 97.27 97.2697
97.1271 97.1267 97.1262 97.1255 97.1245 97.1234 97.1221 97.1207 97.1191 97.1174
97.1157 97.114 97.1122 97.1104 97.1087 97.107 97.1055 97.104 97.1027 97.1016
97.1006 97.0999 97.0993 97.099 96.9588 96.9585 96.9579 96.957 96.956 96.9548
96.9534 96.9518 96.9501 96.9483 96.9464 96.9445 96.9425 96.9406 96.9387 96.9369
96.9351 96.9335 96.9321 96.9309 96.9298 96.929 96.9284 96.928 96.7908 96.7904
96.7898 96.7889 96.7877 96.7864 96.7848 96.7831 96.7812 96.7792 96.7771 96.775
96.7728 96.7707 96.7686 96.7666 96.7647 96.7629 96.7614 96.76 96.7588 96.7579
96.7572 96.7568 96.6231 96.6227 96.6219 96.6209 96.6197 96.6182 96.6164 96.6145
96.6124 96.6102 96.6079 96.6055 96.6031 96.6008 96.5984 96.5962 96.5941 96.5922
96.5904 96.5889 96.5876 96.5865 96.5858 96.5853 96.4557 96.4552 96.4544 96.4533
96.4519 96.4502 96.4483 96.4461 96.4438 96.4413 96.4388 96.4361 96.4335 96.4308
96.4282 96.4257 96.4234 96.4212 96.4192 96.4175 96.4161 96.4149 96.4141 96.4136
96.2887 96.2881 96.2872 96.2859 96.2844 96.2825 96.2803 96.2779 96.2753 96.2726
96.2697 96.2668 96.2638 96.2608 96.2579 96.2551 96.2525 96.25 96.2479 96.2459
96.2443 96.243 96.2421 96.2415 96.122 96.1214 96.1203 96.1189 96.1172 96.1151
96.1127 96.11 96.1071 96.104 96.1007 96.0974 96.0941 96.0908 96.0875 96.0844
96.0814 96.0787 96.0762 96.074 96.0722 96.0708 96.0697 96.0691 95.9557 95.955
95.9539 95.9523 95.9503 95.948 95.9453 95.9422 95.939 95.9355 95.9319 95.9282
95.9244 95.9206 95.917 95.9134 95.9101 95.907 95.9043 95.9018 95.8998 95.8981
95.8969 95.8962 95.7899 95.7892 95.7879 95.7861 95.7839 95.7812 95.7782 95.7748
95.7711 95.7672 95.7631 95.7589 95.7547 95.7505 95.7463 95.7424 95.7386 95.7351
95.732 95.7292 95.7269 95.7251 95.7237 95.7229 95.6247 95.6238 95.6224 95.6204
95.6179 95.6149 95.6115 95.6076 95.6035 95.5991 95.5945 95.5898 95.585 95.5802
95.5755 95.571 95.5668 95.5629 95.5593 95.5562 95.5536 95.5515 95.55 95.549
95.46 95.459 95.4574 95.4552 95.4524 95.449 95.4451 95.4408 95.4362 95.4312
95.426 95.4206 95.4152 95.4099 95.4046 95.3995 95.3947 95.3902 95.3862 95.3827
95.3797 95.3773 95.3756 95.3746 95.296 95.2949 95.2931 95.2906 95.2874 95.2836
95.2793 95.2744 95.2691 95.2635 95.2577 95.2516 95.2455 95.2394 95.2334 95.2277
95.2222 95.2172 95.2126 95.2086 95.2053 95.2026 95.2006 95.1994 95.1328 95.1316
95.1295 95.1267 95.1231 95.1188 95.1139 95.1084 95.1025 95.0961 95.0895 95.0827
95.0758 95.0689 95.0621 95.0556 95.0494 95.0437 95.0385 95.034 95.0301 95.0271
95.0249 95.0235 94.9704 94.969 94.9667 94.9635 94.9594 94.9546 94.9491 94.9429
94.9362 94.929 94.9215 94.9138 94.906 94.8982 94.8905 94.8831 94.8761 94.8696
94.8637 94.8586 94.8542 94.8507 94.8482 94.8467 94.809 94.8074 94.8048 94.8012
94.7966 94.7912 94.7849 94.778 94.7704 94.7623 94.7538 94.7451 94.7362 94.7274
94.7187 94.7103 94.7023 94.6949 94.6882 94.6824 94.6774 94.6735 94.6706 94.6688
94.6486 94.6468 94.6439 94.6398 94.6347 94.6285 94.6215 94.6136 94.6051 94.5959
94.5864 94.5765 94.5664 94.5564 94.5465 94.537 94.528 94.5196 94.512 94.5053
94.4996 94.4951 94.4918 94.4898 94.4894 94.4874 94.4841 94.4795 94.4737 94.4668
94.4589 94.45 94.4404 94.4301 94.4192 94.408 94.3967 94.3853 94.3741 94.3633
94.353 94.3434 94.3347 94.3271 94.3207 94.3155 94.3118 94.3095 94.3315 94.3293
94.3256 94.3204 94.3139 94.3062 94.2972 94.2872 94.2763 94.2647 94.2524 94.2398
94.2269 94.214 94.2013 94.189 94.1773 94.1664 94.1565 94.1478 94.1404 94.1345
94.1303 94.1277 94.1752 94.1727 94.1685 94.1627 94.1554 94.1467 94.1366 94.1254
94.1131 94.0999 94.0861 94.0717 94.0571 94.0425 94.0281 94.0141 94.0007 93.9883
93.977 93.9671 93.9587 93.952 93.9471 93.9441 94.0206 94.0177 94.013 94.0066
93.9984 93.9885 93.9772 93.9646 93.9507 93.9358 93.9202 93.904 93.8875 93.8708
93.8544 93.8385 93.8233 93.8092 93.7963 93.7849 93.7753 93.7676 93.7619 93.7585
93.8678 93.8646 93.8594 93.8521 93.8429 93.8319 93.8192 93.8049 93.7893 93.7726
93.7549 93.7366 93.7178 93.699 93.6803 93.6622 93.6449 93.6287 93.614 93.6009
93.5899 93.5811 93.5746 93.5707 93.7172 93.7136 93.7078 93.6996 93.6893 93.677
93.6627 93.6467 93.6291 93.6102 93.5903 93.5696 93.5483 93.5269 93.5057 93.4851
93.4653 93.4468 93.4299 93.415 93.4023 93.3921 93.3847 93.3802 93.5689 93.565
93.5584 93.5493 93.5378 93.524 93.508 93.49 93.4702 93.449 93.4265 93.403
93.379 93.3547 93.3306 93.307 93.2845 93.2633 93.2439 93.2268 93.2122 93.2005
93.1919 93.1867 93.4233 93.4189 93.4116 93.4015 93.3886 93.3731 93.3552 93.3351
93.3129 93.289 93.2636 93.2371 93.2099 93.1823 93.1549 93.128 93.1022 93.078
93.0557 93.036 93.0192 93.0057 92.9958 92.9897 93.2807 93.2758 93.2676 93.2563
93.242 93.2247 93.2047 93.1822 93.1573 93.1304 93.1019 93.072 93.0412 93.0099
92.9786 92.948 92.9184 92.8906 92.865 92.8423 92.8228 92.8072 92.7957 92.7887
93.1413 93.1359 93.1268 93.1143 93.0983 93.0791 93.0568 93.0316 93.0038 92.9736
92.9415 92.9077 92.8729 92.8374 92.8018 92.7668 92.733 92.701 92.6715 92.6452
92.6227 92.6045 92.5912 92.5831 93.0056 92.9995 92.9895 92.9757 92.958 92.9366
92.9118 92.8837 92.8526 92.8188 92.7827 92.7447 92.7052 92.665 92.6245 92.5845
92.5456 92.5088 92.4747 92.4443 92.4181 92.397 92.3814 92.3719 92.8738 92.8672
92.8562 92.8408 92.8213 92.7976 92.7701 92.7388 92.7041 92.6663 92.6258 92.583
92.5385 92.4928 92.4467 92.4009 92.3563 92.3139 92.2744 92.239 92.2085 92.1838