# vtk DataFile Version 2.0
cube, Created by Gmsh 4.14.0 
ASCII
DATASET UNSTRUCTURED_GRID
POINTS 27 double
0 0 0.5
0.5 0 0.5
0.5 0.5 0.5
0 0.5 0.5
0 0 1
0.5 0 1
0.5 0.5 1
0 0.5 1
0.25 0 0.5
0.5 0.25 0.5
0.25 0.5 0.5
0 0.25 0.5
0 0 0.75
0.5 0 0.75
0.25 0 1
0.5 0.5 0.75
0.5 0.25 1
0 0.5 0.75
0.25 0.5 1
0 0.25 1
0.25 0.25 0.5
0.25 0 0.75
0.5 0.25 0.75
0.25 0.5 0.75
0 0.25 0.75
0.25 0.25 1
0.25 0.25 0.75

CELLS 32 192
4 0 8 20 11
4 11 20 10 3
4 8 1 9 20
4 20 9 2 10
4 0 8 21 12
4 12 21 14 4
4 8 1 13 21
4 21 13 5 14
4 1 9 22 13
4 13 22 16 5
4 9 2 15 22
4 22 15 6 16
4 2 10 23 15
4 15 23 18 6
4 10 3 17 23
4 23 17 7 18
4 3 11 24 17
4 17 24 19 7
4 11 0 12 24
4 24 12 4 19
4 4 14 25 19
4 19 25 18 7
4 14 5 16 25
4 25 16 6 18
8 0 8 20 11 12 21 26 24
8 12 21 26 24 4 14 25 19
8 11 20 10 3 24 26 23 17
8 24 26 23 17 19 25 18 7
8 8 1 9 20 21 13 22 26
8 21 13 22 26 14 5 16 25
8 20 9 2 10 26 22 15 23
8 26 22 15 23 25 16 6 18

CELL_TYPES 32
9
9
9
9
9
9
9
9
9
9
9
9
9
9
9
9
9
9
9
9
9
9
9
9
12
12
12
12
12
12
12
12

CELL_DATA 32
SCALARS CellEntityIds int 1
LOOKUP_TABLE default
1
1
1
1
2
2
2
2
3
3
3
3
4
4
4
4
5
5
5
5
6
6
6
6
1
1
1
1
1
1
1
1
