# vtk DataFile Version 2.0
cube, Created by Gmsh 4.14.0 
ASCII
DATASET UNSTRUCTURED_GRID
POINTS 64 double
0 0 0
0.5 0 0
0.5 0.5 0
0 0.5 0
0 0 0.5
0.5 0 0.5
0.5 0.5 0.5
0 0.5 0.5
0.1666666666666667 0 0
0.3333333333333333 0 0
0.5 0.1666666666666667 0
0.5 0.3333333333333333 0
0.3333333333333334 0.5 0
0.1666666666666667 0.5 0
0 0.3333333333333334 0
0 0.1666666666666667 0
0 0 0.1666666666666667
0 0 0.3333333333333333
0.5 0 0.1666666666666667
0.5 0 0.3333333333333333
0.1666666666666667 0 0.5
0.3333333333333333 0 0.5
0.5 0.5 0.1666666666666667
0.5 0.5 0.3333333333333333
0.5 0.1666666666666667 0.5
0.5 0.3333333333333333 0.5
0 0.5 0.1666666666666667
0 0.5 0.3333333333333333
0.3333333333333334 0.5 0.5
0.1666666666666667 0.5 0.5
0 0.3333333333333334 0.5
0 0.1666666666666667 0.5
0.1666666666666667 0.1666666666666667 0
0.1666666666666667 0.3333333333333334 0
0.3333333333333333 0.1666666666666667 0
0.3333333333333333 0.3333333333333333 0
0.1666666666666667 0 0.1666666666666667
0.1666666666666667 0 0.3333333333333333
0.3333333333333333 0 0.1666666666666667
0.3333333333333333 0 0.3333333333333333
0.5 0.1666666666666667 0.1666666666666667
0.5 0.1666666666666667 0.3333333333333333
0.5 0.3333333333333333 0.1666666666666667
0.5 0.3333333333333333 0.3333333333333333
0.3333333333333334 0.5 0.1666666666666667
0.3333333333333334 0.5 0.3333333333333333
0.1666666666666667 0.5 0.1666666666666667
0.1666666666666667 0.5 0.3333333333333333
0 0.3333333333333334 0.1666666666666667
0 0.3333333333333334 0.3333333333333333
0 0.1666666666666667 0.1666666666666667
0 0.1666666666666667 0.3333333333333333
0.1666666666666667 0.1666666666666667 0.5
0.1666666666666667 0.3333333333333334 0.5
0.3333333333333333 0.1666666666666667 0.5
0.3333333333333333 0.3333333333333333 0.5
0.1666666666666667 0.1666666666666667 0.1666666666666667
0.1666666666666667 0.1666666666666667 0.3333333333333333
0.1666666666666667 0.3333333333333334 0.1666666666666667
0.1666666666666667 0.3333333333333334 0.3333333333333333
0.3333333333333333 0.1666666666666667 0.1666666666666667
0.3333333333333333 0.1666666666666667 0.3333333333333333
0.3333333333333333 0.3333333333333333 0.1666666666666667
0.3333333333333333 0.3333333333333333 0.3333333333333333

CELLS 81 513
4 0 8 32 15
4 15 32 33 14
4 14 33 13 3
4 8 9 34 32
4 32 34 35 33
4 33 35 12 13
4 9 1 10 34
4 34 10 11 35
4 35 11 2 12
4 0 8 36 16
4 16 36 37 17
4 17 37 20 4
4 8 9 38 36
4 36 38 39 37
4 37 39 21 20
4 9 1 18 38
4 38 18 19 39
4 39 19 5 21
4 1 10 40 18
4 18 40 41 19
4 19 41 24 5
4 10 11 42 40
4 40 42 43 41
4 41 43 25 24
4 11 2 22 42
4 42 22 23 43
4 43 23 6 25
4 2 12 44 22
4 22 44 45 23
4 23 45 28 6
4 12 13 46 44
4 44 46 47 45
4 45 47 29 28
4 13 3 26 46
4 46 26 27 47
4 47 27 7 29
4 3 14 48 26
4 26 48 49 27
4 27 49 30 7
4 14 15 50 48
4 48 50 51 49
4 49 51 31 30
4 15 0 16 50
4 50 16 17 51
4 51 17 4 31
4 4 20 52 31
4 31 52 53 30
4 30 53 29 7
4 20 21 54 52
4 52 54 55 53
4 53 55 28 29
4 21 5 24 54
4 54 24 25 55
4 55 25 6 28
8 0 8 32 15 16 36 56 50
8 16 36 56 50 17 37 57 51
8 17 37 57 51 4 20 52 31
8 15 32 33 14 50 56 58 48
8 50 56 58 48 51 57 59 49
8 51 57 59 49 31 52 53 30
8 14 33 13 3 48 58 46 26
8 48 58 46 26 49 59 47 27
8 49 59 47 27 30 53 29 7
8 8 9 34 32 36 38 60 56
8 36 38 60 56 37 39 61 57
8 37 39 61 57 20 21 54 52
8 32 34 35 33 56 60 62 58
8 56 60 62 58 57 61 63 59
8 57 61 63 59 52 54 55 53
8 33 35 12 13 58 62 44 46
8 58 62 44 46 59 63 45 47
8 59 63 45 47 53 55 28 29
8 9 1 10 34 38 18 40 60
8 38 18 40 60 39 19 41 61
8 39 19 41 61 21 5 24 54
8 34 10 11 35 60 40 42 62
8 60 40 42 62 61 41 43 63
8 61 41 43 63 54 24 25 55
8 35 11 2 12 62 42 22 44
8 62 42 22 44 63 43 23 45
8 63 43 23 45 55 25 6 28

CELL_TYPES 81
9
9
9
9
9
9
9
9
9
9
9
9
9
9
9
9
9
9
9
9
9
9
9
9
9
9
9
9
9
9
9
9
9
9
9
9
9
9
9
9
9
9
9
9
9
9
9
9
9
9
9
9
9
9
12
12
12
12
12
12
12
12
12
12
12
12
12
12
12
12
12
12
12
12
12
12
12
12
12
12
12

CELL_DATA 81
SCALARS CellEntityIds int 1
LOOKUP_TABLE default
1
1
1
1
1
1
1
1
1
2
2
2
2
2
2
2
2
2
3
3
3
3
3
3
3
3
3
4
4
4
4
4
4
4
4
4
5
5
5
5
5
5
5
5
5
6
6
6
6
6
6
6
6
6
1
1
1
1
1
1
1
1
1
1
1
1
1
1
1
1
1
1
1
1
1
1
1
1
1
1
1
