# vtk DataFile Version 2.0
cube, Created by Gmsh 4.14.0 
ASCII
DATASET UNSTRUCTURED_GRID
POINTS 125 double
0.5 0.5 0.5
1 0.5 0.5
1 1 0.5
0.5 1 0.5
0.5 0.5 1
1 0.5 1
1 1 1
0.5 1 1
0.625 0.5 0.5
0.75 0.5 0.5
0.875 0.5 0.5
1 0.625 0.5
1 0.75 0.5
1 0.875 0.5
0.875 1 0.5
0.75 1 0.5
0.625 1 0.5
0.5 0.875 0.5
0.5 0.75 0.5
0.5 0.625 0.5
0.5 0.5 0.625
0.5 0.5 0.75
0.5 0.5 0.875
1 0.5 0.625
1 0.5 0.75
1 0.5 0.875
0.625 0.5 1
0.75 0.5 1
0.875 0.5 1
1 1 0.625
1 1 0.75
1 1 0.875
1 0.625 1
1 0.75 1
1 0.875 1
0.5 1 0.625
0.5 1 0.75
0.5 1 0.875
0.875 1 1
0.75 1 1
0.625 1 1
0.5 0.875 1
0.5 0.75 1
0.5 0.625 1
0.625 0.625 0.5
0.625 0.75 0.5
0.625 0.875 0.5
0.75 0.625 0.5
0.75 0.75 0.5
0.75 0.875 0.5
0.875 0.625 0.5
0.875 0.75 0.5
0.875 0.875 0.5
0.625 0.5 0.625
0.625 0.5 0.75
0.625 0.5 0.875
0.75 0.5 0.625
0.75 0.5 0.75
0.75 0.5 0.875
0.875 0.5 0.625
0.875 0.5 0.75
0.875 0.5 0.875
1 0.625 0.625
1 0.625 0.75
1 0.625 0.875
1 0.75 0.625
1 0.75 0.75
1 0.75 0.875
1 0.875 0.625
1 0.875 0.75
1 0.875 0.875
0.875 1 0.625
0.875 1 0.75
0.875 1 0.875
0.75 1 0.625
0.75 1 0.75
0.75 1 0.875
0.625 1 0.625
0.625 1 0.75
0.625 1 0.875
0.5 0.875 0.625
0.5 0.875 0.75
0.5 0.875 0.875
0.5 0.75 0.625
0.5 0.75 0.75
0.5 0.75 0.875
0.5 0.625 0.625
0.5 0.625 0.75
0.5 0.625 0.875
0.625 0.625 1
0.625 0.75 1
0.625 0.875 1
0.75 0.625 1
0.75 0.75 1
0.75 0.875 1
0.875 0.625 1
0.875 0.75 1
0.875 0.875 1
0.625 0.625 0.625
0.625 0.625 0.75
0.625 0.625 0.875
0.625 0.75 0.625
0.625 0.75 0.75
0.625 0.75 0.875
0.625 0.875 0.625
0.625 0.875 0.75
0.625 0.875 0.875
0.75 0.625 0.625
0.75 0.625 0.75
0.75 0.625 0.875
0.75 0.75 0.625
0.75 0.75 0.75
0.75 0.75 0.875
0.75 0.875 0.625
0.75 0.875 0.75
0.75 0.875 0.875
0.875 0.625 0.625
0.875 0.625 0.75
0.875 0.625 0.875
0.875 0.75 0.625
0.875 0.75 0.75
0.875 0.75 0.875
0.875 0.875 0.625
0.875 0.875 0.75
0.875 0.875 0.875

CELLS 160 1056
4 0 8 44 19
4 19 44 45 18
4 18 45 46 17
4 17 46 16 3
4 8 9 47 44
4 44 47 48 45
4 45 48 49 46
4 46 49 15 16
4 9 10 50 47
4 47 50 51 48
4 48 51 52 49
4 49 52 14 15
4 10 1 11 50
4 50 11 12 51
4 51 12 13 52
4 52 13 2 14
4 0 8 53 20
4 20 53 54 21
4 21 54 55 22
4 22 55 26 4
4 8 9 56 53
4 53 56 57 54
4 54 57 58 55
4 55 58 27 26
4 9 10 59 56
4 56 59 60 57
4 57 60 61 58
4 58 61 28 27
4 10 1 23 59
4 59 23 24 60
4 60 24 25 61
4 61 25 5 28
4 1 11 62 23
4 23 62 63 24
4 24 63 64 25
4 25 64 32 5
4 11 12 65 62
4 62 65 66 63
4 63 66 67 64
4 64 67 33 32
4 12 13 68 65
4 65 68 69 66
4 66 69 70 67
4 67 70 34 33
4 13 2 29 68
4 68 29 30 69
4 69 30 31 70
4 70 31 6 34
4 2 14 71 29
4 29 71 72 30
4 30 72 73 31
4 31 73 38 6
4 14 15 74 71
4 71 74 75 72
4 72 75 76 73
4 73 76 39 38
4 15 16 77 74
4 74 77 78 75
4 75 78 79 76
4 76 79 40 39
4 16 3 35 77
4 77 35 36 78
4 78 36 37 79
4 79 37 7 40
4 3 17 80 35
4 35 80 81 36
4 36 81 82 37
4 37 82 41 7
4 17 18 83 80
4 80 83 84 81
4 81 84 85 82
4 82 85 42 41
4 18 19 86 83
4 83 86 87 84
4 84 87 88 85
4 85 88 43 42
4 19 0 20 86
4 86 20 21 87
4 87 21 22 88
4 88 22 4 43
4 4 26 89 43
4 43 89 90 42
4 42 90 91 41
4 41 91 40 7
4 26 27 92 89
4 89 92 93 90
4 90 93 94 91
4 91 94 39 40
4 27 28 95 92
4 92 95 96 93
4 93 96 97 94
4 94 97 38 39
4 28 5 32 95
4 95 32 33 96
4 96 33 34 97
4 97 34 6 38
8 0 8 44 19 20 53 98 86
8 20 53 98 86 21 54 99 87
8 21 54 99 87 22 55 100 88
8 22 55 100 88 4 26 89 43
8 19 44 45 18 86 98 101 83
8 86 98 101 83 87 99 102 84
8 87 99 102 84 88 100 103 85
8 88 100 103 85 43 89 90 42
8 18 45 46 17 83 101 104 80
8 83 101 104 80 84 102 105 81
8 84 102 105 81 85 103 106 82
8 85 103 106 82 42 90 91 41
8 17 46 16 3 80 104 77 35
8 80 104 77 35 81 105 78 36
8 81 105 78 36 82 106 79 37
8 82 106 79 37 41 91 40 7
8 8 9 47 44 53 56 107 98
8 53 56 107 98 54 57 108 99
8 54 57 108 99 55 58 109 100
8 55 58 109 100 26 27 92 89
8 44 47 48 45 98 107 110 101
8 98 107 110 101 99 108 111 102
8 99 108 111 102 100 109 112 103
8 100 109 112 103 89 92 93 90
8 45 48 49 46 101 110 113 104
8 101 110 113 104 102 111 114 105
8 102 111 114 105 103 112 115 106
8 103 112 115 106 90 93 94 91
8 46 49 15 16 104 113 74 77
8 104 113 74 77 105 114 75 78
8 105 114 75 78 106 115 76 79
8 106 115 76 79 91 94 39 40
8 9 10 50 47 56 59 116 107
8 56 59 116 107 57 60 117 108
8 57 60 117 108 58 61 118 109
8 58 61 118 109 27 28 95 92
8 47 50 51 48 107 116 119 110
8 107 116 119 110 108 117 120 111
8 108 117 120 111 109 118 121 112
8 109 118 121 112 92 95 96 93
8 48 51 52 49 110 119 122 113
8 110 119 122 113 111 120 123 114
8 111 120 123 114 112 121 124 115
8 112 121 124 115 93 96 97 94
8 49 52 14 15 113 122 71 74
8 113 122 71 74 114 123 72 75
8 114 123 72 75 115 124 73 76
8 115 124 73 76 94 97 38 39
8 10 1 11 50 59 23 62 116
8 59 23 62 116 60 24 63 117
8 60 24 63 117 61 25 64 118
8 61 25 64 118 28 5 32 95
8 50 11 12 51 116 62 65 119
8 116 62 65 119 117 63 66 120
8 117 63 66 120 118 64 67 121
8 118 64 67 121 95 32 33 96
8 51 12 13 52 119 65 68 122
8 119 65 68 122 120 66 69 123
8 120 66 69 123 121 67 70 124
8 121 67 70 124 96 33 34 97
8 52 13 2 14 122 68 29 71
8 122 68 29 71 123 69 30 72
8 123 69 30 72 124 70 31 73
8 124 70 31 73 97 34 6 38

CELL_TYPES 160
9
9
9
9
9
9
9
9
9
9
9
9
9
9
9
9
9
9
9
9
9
9
9
9
9
9
9
9
9
9
9
9
9
9
9
9
9
9
9
9
9
9
9
9
9
9
9
9
9
9
9
9
9
9
9
9
9
9
9
9
9
9
9
9
9
9
9
9
9
9
9
9
9
9
9
9
9
9
9
9
9
9
9
9
9
9
9
9
9
9
9
9
9
9
9
9
12
12
12
12
12
12
12
12
12
12
12
12
12
12
12
12
12
12
12
12
12
12
12
12
12
12
12
12
12
12
12
12
12
12
12
12
12
12
12
12
12
12
12
12
12
12
12
12
12
12
12
12
12
12
12
12
12
12
12
12
12
12
12
12

CELL_DATA 160
SCALARS CellEntityIds int 1
LOOKUP_TABLE default
1
1
1
1
1
1
1
1
1
1
1
1
1
1
1
1
2
2
2
2
2
2
2
2
2
2
2
2
2
2
2
2
3
3
3
3
3
3
3
3
3
3
3
3
3
3
3
3
4
4
4
4
4
4
4
4
4
4
4
4
4
4
4
4
5
5
5
5
5
5
5
5
5
5
5
5
5
5
5
5
6
6
6
6
6
6
6
6
6
6
6
6
6
6
6
6
1
1
1
1
1
1
1
1
1
1
1
1
1
1
1
1
1
1
1
1
1
1
1
1
1
1
1
1
1
1
1
1
1
1
1
1
1
1
1
1
1
1
1
1
1
1
1
1
1
1
1
1
1
1
1
1
1
1
1
1
1
1
1
1
