# vtk DataFile Version 2.0
domain, Created by Gmsh 4.14.0 
ASCII
DATASET UNSTRUCTURED_GRID
POINTS 112 double
0 0.5 0
1 0.5 0
1 1 0
0 1 0
0.07692307692307693 0.5 0
0.1538461538461539 0.5 0
0.2307692307692308 0.5 0
0.3076923076923077 0.5 0
0.3846153846153846 0.5 0
0.4615384615384616 0.5 0
0.5384615384615385 0.5 0
0.6153846153846154 0.5 0
0.6923076923076923 0.5 0
0.7692307692307693 0.5 0
0.8461538461538463 0.5 0
0.9230769230769231 0.5 0
1 0.5714285714285714 0
1 0.6428571428571428 0
1 0.7142857142857143 0
1 0.7857142857142857 0
1 0.8571428571428571 0
1 0.9285714285714286 0
0.9230769230769231 1 0
0.8461538461538461 1 0
0.7692307692307692 1 0
0.6923076923076923 1 0
0.6153846153846154 1 0
0.5384615384615384 1 0
0.4615384615384615 1 0
0.3846153846153846 1 0
0.3076923076923077 1 0
0.2307692307692307 1 0
0.1538461538461537 1 0
0.07692307692307687 1 0
0 0.9285714285714286 0
0 0.8571428571428572 0
0 0.7857142857142857 0
0 0.7142857142857143 0
0 0.6428571428571429 0
0 0.5714285714285714 0
0.07692307692307687 0.5714285714285714 0
0.07692307692307687 0.6428571428571429 0
0.07692307692307687 0.7142857142857143 0
0.07692307692307687 0.7857142857142857 0
0.07692307692307687 0.8571428571428571 0
0.07692307692307687 0.9285714285714286 0
0.1538461538461536 0.5714285714285714 0
0.1538461538461539 0.6428571428571429 0
0.1538461538461539 0.7142857142857143 0
0.1538461538461537 0.7857142857142857 0
0.1538461538461537 0.8571428571428572 0
0.1538461538461537 0.9285714285714286 0
0.2307692307692308 0.5714285714285714 0
0.2307692307692307 0.6428571428571429 0
0.2307692307692307 0.7142857142857143 0
0.2307692307692307 0.7857142857142857 0
0.2307692307692307 0.8571428571428572 0
0.2307692307692307 0.9285714285714286 0
0.3076923076923077 0.5714285714285714 0
0.3076923076923078 0.6428571428571429 0
0.3076923076923077 0.7142857142857143 0
0.3076923076923077 0.7857142857142857 0
0.3076923076923077 0.8571428571428571 0
0.3076923076923077 0.9285714285714286 0
0.3846153846153846 0.5714285714285714 0
0.3846153846153847 0.6428571428571429 0
0.3846153846153846 0.7142857142857143 0
0.3846153846153846 0.7857142857142857 0
0.3846153846153846 0.8571428571428571 0
0.3846153846153846 0.9285714285714286 0
0.4615384615384615 0.5714285714285714 0
0.4615384615384616 0.6428571428571429 0
0.4615384615384615 0.7142857142857143 0
0.4615384615384615 0.7857142857142857 0
0.4615384615384615 0.8571428571428571 0
0.4615384615384615 0.9285714285714286 0
0.5384615384615385 0.5714285714285714 0
0.5384615384615385 0.6428571428571429 0
0.5384615384615385 0.7142857142857143 0
0.5384615384615385 0.7857142857142857 0
0.5384615384615385 0.8571428571428571 0
0.5384615384615384 0.9285714285714286 0
0.6153846153846154 0.5714285714285714 0
0.6153846153846154 0.6428571428571429 0
0.6153846153846154 0.7142857142857143 0
0.6153846153846154 0.7857142857142857 0
0.6153846153846153 0.8571428571428571 0
0.6153846153846154 0.9285714285714286 0
0.6923076923076923 0.5714285714285714 0
0.6923076923076923 0.6428571428571429 0
0.6923076923076923 0.7142857142857143 0
0.6923076923076923 0.7857142857142857 0
0.6923076923076923 0.8571428571428571 0
0.6923076923076923 0.9285714285714286 0
0.7692307692307693 0.5714285714285714 0
0.7692307692307693 0.6428571428571429 0
0.7692307692307693 0.7142857142857143 0
0.7692307692307693 0.7857142857142857 0
0.7692307692307692 0.8571428571428571 0
0.7692307692307692 0.9285714285714286 0
0.8461538461538463 0.5714285714285714 0
0.8461538461538463 0.6428571428571429 0
0.8461538461538463 0.7142857142857143 0
0.8461538461538461 0.7857142857142857 0
0.8461538461538463 0.8571428571428571 0
0.846153846153846 0.9285714285714286 0
0.9230769230769231 0.5714285714285714 0
0.9230769230769231 0.6428571428571429 0
0.9230769230769231 0.7142857142857143 0
0.9230769230769231 0.7857142857142857 0
0.9230769230769231 0.8571428571428571 0
0.9230769230769231 0.9285714285714286 0

CELLS 222 848
2 0 4
2 4 5
2 5 6
2 6 7
2 7 8
2 8 9
2 9 10
2 10 11
2 11 12
2 12 13
2 13 14
2 14 15
2 15 1
2 1 16
2 16 17
2 17 18
2 18 19
2 19 20
2 20 21
2 21 2
2 2 22
2 22 23
2 23 24
2 24 25
2 25 26
2 26 27
2 27 28
2 28 29
2 29 30
2 30 31
2 31 32
2 32 33
2 33 3
2 3 34
2 34 35
2 35 36
2 36 37
2 37 38
2 38 39
2 39 0
3 0 4 39
3 39 4 40
3 39 40 38
3 38 40 41
3 38 41 37
3 37 41 42
3 37 42 36
3 36 42 43
3 36 43 35
3 35 43 44
3 35 44 34
3 34 44 45
3 34 45 3
3 3 45 33
3 4 5 40
3 40 5 46
3 40 46 41
3 41 46 47
3 41 47 42
3 42 47 48
3 42 48 43
3 43 48 49
3 43 49 44
3 44 49 50
3 44 50 45
3 45 50 51
3 45 51 33
3 33 51 32
3 5 6 46
3 46 6 52
3 46 52 47
3 47 52 53
3 47 53 48
3 48 53 54
3 48 54 49
3 49 54 55
3 49 55 50
3 50 55 56
3 50 56 51
3 51 56 57
3 51 57 32
3 32 57 31
3 6 7 52
3 52 7 58
3 52 58 53
3 53 58 59
3 53 59 54
3 54 59 60
3 54 60 55
3 55 60 61
3 55 61 56
3 56 61 62
3 56 62 57
3 57 62 63
3 57 63 31
3 31 63 30
3 7 8 58
3 58 8 64
3 58 64 59
3 59 64 65
3 59 65 60
3 60 65 66
3 60 66 61
3 61 66 67
3 61 67 62
3 62 67 68
3 62 68 63
3 63 68 69
3 63 69 30
3 30 69 29
3 8 9 64
3 64 9 70
3 64 70 65
3 65 70 71
3 65 71 66
3 66 71 72
3 66 72 67
3 67 72 73
3 67 73 68
3 68 73 74
3 68 74 69
3 69 74 75
3 69 75 29
3 29 75 28
3 9 10 70
3 70 10 76
3 70 76 71
3 71 76 77
3 71 77 72
3 72 77 78
3 72 78 73
3 73 78 79
3 73 79 74
3 74 79 80
3 74 80 75
3 75 80 81
3 75 81 28
3 28 81 27
3 10 11 76
3 76 11 82
3 76 82 77
3 77 82 83
3 77 83 78
3 78 83 84
3 78 84 79
3 79 84 85
3 79 85 80
3 80 85 86
3 80 86 81
3 81 86 87
3 81 87 27
3 27 87 26
3 11 12 82
3 82 12 88
3 82 88 83
3 83 88 89
3 83 89 84
3 84 89 90
3 84 90 85
3 85 90 91
3 85 91 86
3 86 91 92
3 86 92 87
3 87 92 93
3 87 93 26
3 26 93 25
3 12 13 88
3 88 13 94
3 88 94 89
3 89 94 95
3 89 95 90
3 90 95 96
3 90 96 91
3 91 96 97
3 91 97 92
3 92 97 98
3 92 98 93
3 93 98 99
3 93 99 25
3 25 99 24
3 13 14 94
3 94 14 100
3 94 100 95
3 95 100 101
3 95 101 96
3 96 101 102
3 96 102 97
3 97 102 103
3 97 103 98
3 98 103 104
3 98 104 99
3 99 104 105
3 99 105 24
3 24 105 23
3 14 15 100
3 100 15 106
3 100 106 101
3 101 106 107
3 101 107 102
3 102 107 108
3 102 108 103
3 103 108 109
3 103 109 104
3 104 109 110
3 104 110 105
3 105 110 111
3 105 111 23
3 23 111 22
3 15 1 106
3 106 1 16
3 106 16 107
3 107 16 17
3 107 17 108
3 108 17 18
3 108 18 109
3 109 18 19
3 109 19 110
3 110 19 20
3 110 20 111
3 111 20 21
3 111 21 22
3 22 21 2

CELL_TYPES 222
3
3
3
3
3
3
3
3
3
3
3
3
3
3
3
3
3
3
3
3
3
3
3
3
3
3
3
3
3
3
3
3
3
3
3
3
3
3
3
3
5
5
5
5
5
5
5
5
5
5
5
5
5
5
5
5
5
5
5
5
5
5
5
5
5
5
5
5
5
5
5
5
5
5
5
5
5
5
5
5
5
5
5
5
5
5
5
5
5
5
5
5
5
5
5
5
5
5
5
5
5
5
5
5
5
5
5
5
5
5
5
5
5
5
5
5
5
5
5
5
5
5
5
5
5
5
5
5
5
5
5
5
5
5
5
5
5
5
5
5
5
5
5
5
5
5
5
5
5
5
5
5
5
5
5
5
5
5
5
5
5
5
5
5
5
5
5
5
5
5
5
5
5
5
5
5
5
5
5
5
5
5
5
5
5
5
5
5
5
5
5
5
5
5
5
5
5
5
5
5
5
5
5
5
5
5
5
5
5
5
5
5
5
5
5
5
5
5
5
5
5
5

CELL_DATA 222
SCALARS CellEntityIds int 1
LOOKUP_TABLE default
1
1
1
1
1
1
1
1
1
1
1
1
1
2
2
2
2
2
2
2
2
2
2
2
2
2
2
2
2
2
2
2
2
2
2
2
2
2
2
2
1
1
1
1
1
1
1
1
1
1
1
1
1
1
1
1
1
1
1
1
1
1
1
1
1
1
1
1
1
1
1
1
1
1
1
1
1
1
1
1
1
1
1
1
1
1
1
1
1
1
1
1
1
1
1
1
1
1
1
1
1
1
1
1
1
1
1
1
1
1
1
1
1
1
1
1
1
1
1
1
1
1
1
1
1
1
1
1
1
1
1
1
1
1
1
1
1
1
1
1
1
1
1
1
1
1
1
1
1
1
1
1
1
1
1
1
1
1
1
1
1
1
1
1
1
1
1
1
1
1
1
1
1
1
1
1
1
1
1
1
1
1
1
1
1
1
1
1
1
1
1
1
1
1
1
1
1
1
1
1
1
1
1
1
1
1
1
1
1
1
1
1
1
1
1
1
1
1
1
1
1
1
